
                                 *****************
                                 * O   R   C   A *
                                 *****************

                                            #,                                       
                                            ###                                      
                                            ####                                     
                                            #####                                    
                                            ######                                   
                                           ########,                                 
                                     ,,################,,,,,                         
                               ,,#################################,,                 
                          ,,##########################################,,             
                       ,#########################################, ''#####,          
                    ,#############################################,,   '####,        
                  ,##################################################,,,,####,       
                ,###########''''           ''''###############################       
              ,#####''   ,,,,##########,,,,          '''####'''          '####       
            ,##' ,,,,###########################,,,                        '##       
           ' ,,###''''                  '''############,,,                           
         ,,##''                                '''############,,,,        ,,,,,,###''
      ,#''                                            '''#######################'''  
     '                                                          ''''####''''         
             ,#######,   #######,   ,#######,      ##                                
            ,#'     '#,  ##    ##  ,#'     '#,    #''#        ,####,    ,#,          
            ##       ##  ##   ,#'  ##            #'  '#       #'       ,# #          
            ##       ##  #######   ##           ,######,      #####,      #          
            '#,     ,#'  ##    ##  '#,     ,#' ,#      #,     #,   #      #          
             '#######'   ##     ##  '#######'  #'      '#     '####' #    #          



                #########################################################
                #                        -***-                          #
                #          Department of theory and spectroscopy        #
                #                                                       #
                #                      Frank Neese                      #
                #                                                       #
                #     Directorship, Architecture, Infrastructure        #
                #                    SHARK, DRIVERS                     #
                #        Core code/Algorithms in most modules           #
                #                                                       #
                #        Max Planck Institute fuer Kohlenforschung      #
                #                Kaiser Wilhelm Platz 1                 #
                #                 D-45470 Muelheim/Ruhr                 #
                #                      Germany                          #
                #                                                       #
                #                  All rights reserved                  #
                #                        -***-                          #
                #########################################################


                         Program Version 6.1.0  -  RELEASE   -
                                (GIT: $679e74b$)
                          ($2025-06-10 18:02:51 +0200$)


 With contributions from (in alphabetic order):
[Max-Planck-Institut fuer Kohlenforschung]                               
  Daniel Aravena         : Magnetic Suceptibility                        
  Michael Atanasov       : Ab Initio Ligand Field Theory (pilot matlab implementation)
  Alexander A. Auer      : GIAO ZORA, VPT2 properties, NMR spectrum      
  Ute Becker             : All parallelization in ORCA, NUMFREQ, NUMCALC 
  Giovanni Bistoni       : ED, misc. LED, open-shell LED, HFLD           
  Dmytro Bykov           : pre 5.0 version of the SCF Hessian            
  Marcos Casanova-Páez   : Triplet and SCS-CIS(D). UHF-(DLPNO)-IP/EA/STEOM-CCSD. UHF-CVS-IP/STEOM-CCSD   
  Vijay G. Chilkuri      : MRCI spin determinant printing, contributions to CSF-ICE 
  Pauline Colinet        : FMM embedding                                 
  Dipayan Datta          : RHF DLPNO-CCSD density                        
  Achintya Kumar Dutta   : EOM-CC, STEOM-CC                              
  Nicolas Foglia         : Exact transition moments, OPA infrastructure, MCD improvements    
  Dmitry Ganyushin       : Spin-Orbit,Spin-Spin,Magnetic field MRCI      
  Miquel Garcia-Rates    : C-PCM and meta-GGA Hessian, CCSD/C-PCM, Gaussian charge scheme 
  Tiago L. C. Gouveia    : GS-ROHF, GS-ROCIS                             
  Yang Guo               : DLPNO-NEVPT2, F12-NEVPT2, CIM, IAO-localization        
  Andreas Hansen         : Spin unrestricted coupled pair/coupled cluster methods 
  Ingolf Harden          : AUTO-CI MPn and infrastructure                
  Benjamin Helmich-Paris : MC-RPA, TRAH-(SCF,CASSCF), AVAS, COSX integrals, SCF dyn. polar., MC-PDFT, srDFT 
  Lee Huntington         : MR-EOM, pCC                                   
  Robert Izsak           : Overlap fitted RIJCOSX, COSX-SCS-MP3, EOM     
  Riya Kayal             : Wick's Theorem for AUTO-CI, AUTO-CI UHF-CCSDT 
  Emily Kempfer          : AUTO-CI RHF CISDT and CCSDT, approximate NEVPT4
  Christian Kollmar      : KDIIS, OOCD, Brueckner-CCSD(T), CCSD density, CASPT2, CASPT2-K, improved NEVPT2 
  Axel Koslowski         : Symmetry handling                             
  Simone Kossmann        : meta-GGA functionals, TD-DFT gradient, OOMP2, (MP2 Hessian; deprecated post 5.0) 
  Lucas Lang             : DCDCAS, Hyperfine gauge corrections, ICE-SOC+SSC
  Marvin Lechner         : AUTO-CI (C++ implementation), FIC-MRCC        
  Spencer Leger          : CASSCF response                               
  Dagmar Lenk            : GEPOL surface, SMD, ORCA-2-JSON               
  Dimitrios Liakos       : Extrapolation schemes; Compound Job, Property file
  Dimitrios Manganas     : Further ROCIS development; embedding schemes. LFT, Crystal Embedding 
  Dimitrios Pantazis     : SARC Basis sets                               
  Anastasios Papadopoulos: AUTO-CI, single reference methods and gradients 
  Taras Petrenko         : pre 6.0 DFT Hessian and TD-DFT gradient,  ECA, NRVS 
  Petra Pikulova         : Analytic Raman intensities                    
  Peter Pinski           : DLPNO-MP2, DLPNO-MP2 Gradient                 
  Shashank Vittal Rao    : ES-AILFT, MagRelax                            
  Christoph Reimann      : Effective Core Potentials                     
  Marius Retegan         : Local ZFS, SOC                                
  Christoph Riplinger    : Optimizer, TS searches, QM/MM, DLPNO-CCSD(T), (RO)-DLPNO pert. Triples 
  Michael Roemelt        : Original ROCIS implementation, recursive CI coupling coefficients
  Masaaki Saitow         : Open-shell DLPNO-CCSD energy and density      
  Barbara Sandhoefer     : DKH picture change effects                    
  Yorick L. A. Schmerwitz: GMF and freeze-and-release deltaSCF, NEB S-IDPP initial path                    
  Kantharuban Sivalingam : CASSCF convergence/infrastructure, NEVPT2, NEVPT3, NEVPT4(SD), FIC-MRCI and CEPA variants
  Bernardo de Souza      : ESD, SOC TD-DFT                               
  Georgi L. Stoychev     : AutoAux, RI-MP2 NMR, DLPNO-MP2 response, X2C  
  Van Anh Tran           : RI-MP2 g-tensors                              
  Willem Van den Heuvel  : Paramagnetic NMR                              
  Zikuan Wang            : NOTCH, Electric field optimization            
  Frank Wennmohs         : Technical directorship and infrastructure     
  Hang Xu                : AUTO-CI-Response properties                   
                                                                         
[FACCTs GmbH]                                                            
  Markus Bursch, Nicolas Foglia, Miquel Garcia-Rates, Ingolf Harden, Hagen Neugebauer, Anastasios Papadopoulos, 
  Christoph Riplinger, Bernardo de Souza, Georgi L. Stoychev                                                    
                                                                 
  APM, various basis sets, CI-OPT, improved COSX, DLPNO-Multilevel,           
  DOCKER, DRACO, updates on ESD, Fragmentator, GOAT, IRC, LR-CPCM, L-BFGS, MBIS, meta-GGA TD-DFT gradient, ML-optimized integration grids, 
  MM, NACMEs, nearIR, NEB, NEB-TS, NL-DFT gradient (VV10), 2- and 3-layer-ONIOM, interface openCOSMO-RS, QMMM,   
  Crystal-QMMM, RESP, rigid body optimization, SF, symmetry and pop. for TD-DFT, various functionals, SOLVATOR                                   
                                                                         
[Other institutions]                                                     
  V. Asgeirsson          : NEB                                           
  Christoph Bannwarth    : sTDA-DFT, sTD-DFT, PBEh-3c, B97-3c, D3        
  Giovanni Bistoni       : ETS/NOCV, ADLD/ADEX, COVALED                  
  Martin Brehm           : Molecular dynamics                            
  Ronald Cardenas        : ETS/NOCV                                      
  Martina Colucci        : COVALED                                       
  Sebastian Ehlert       : rSCAN, r2SCAN, r2SCAN-3c, D4, dhf basis sets  
  Marvin Friede          : D4 for Fr, Ra, Ac-Lr                          
  Lars Goerigk           : TD-DFT with DH, B97 family of functionals     
  Stefan Grimme          : VdW corrections, initial TS optimization, DFT functionals, gCP, sTDA/sTD-DF 
  Waldemar Hujo          : DFT-NL                                        
  H. Jonsson             : NEB                                           
  Holger Kruse           : gCP                                           
  Marcel Mueller         : wB97X-3c, vDZP basis set                      
  Hagen Neugebauer       : wr2SCAN, Native XTB                           
  Gianluca Regni         : ADLD/ADEX                                     
  Tobias Risthaus        : pre 6.0 range-separated hybrid DFT and stability analysis
  Lukas Wittmann         : regularized MP2, r2SCAN double-hybrids, wr2SCAN        
                                                                         
We gratefully acknowledge several colleagues who have allowed us to      
interface, adapt or use parts of their codes:                            
  Ed Valeev, F. Pavosevic, A. Kumar             : LibInt (2-el integral package), F12 methods 
  Garnet Chan, S. Sharma, J. Yang, R. Olivares  : DMRG                   
  Ulf Ekstrom                                   : XCFun DFT Library      
  Mihaly Kallay                                 : mrcc  (arbitrary order and MRCC methods)
  Frank Weinhold                                : gennbo (NPA and NBO analysis)           
  Simon Mueller                                 : openCOSMO-RS                            
  Christopher J. Cramer and Donald G. Truhlar   : smd solvation model                     
  S Lehtola, MJT Oliveira, MAL Marques          : LibXC Library                           
  Liviu Ungur et al                             : ANISO software                          


 Your calculation uses the libint2 library for the computation of 2-el integrals
 For citations please refer to: http://libint.valeyev.net

 Your ORCA version has been built with support for libXC version: 7.0.0
 For citations please refer to: https://libxc.gitlab.io

 This ORCA versions uses:
   CBLAS   interface :  Fast vector & matrix operations
   LAPACKE interface :  Fast linear algebra routines
   SCALAPACK package :  Parallel linear algebra routines
   Shared memory     :  Shared parallel matrices
   BLAS/LAPACK       :  OpenBLAS 0.3.29  USE64BITINT DYNAMIC_ARCH NO_AFFINITY Cooperlake SINGLE_THREADED
        Core in use  :  Cooperlake
   Copyright (c) 2011-2014, The OpenBLAS Project


  ***********************************
  * Starting time: Tue Oct 14 04:48:55 2025
  * Host name:     zhoulab-2
  * Process ID:    1402642
  * Working dir.:  /data/home/grads/jianpengc/projects/materials/R_MetaSymbO/_mdopt2/orca_sp
  ***********************************

NOTE: MaxCore=4000 MB was set to SCF,MP2,MDCI,CIPSI,MRCI,RASCI and CIS
      => If you want to overwrite this, your respective input block should be placed after the MaxCore statement
Your calculation utilizes the atom-pairwise dispersion correction
based on EEQ partial charges (D4)


================================================================================

----- Orbital basis set information -----
Your calculation utilizes the basis: def2-SVP
   F. Weigend and R. Ahlrichs, Phys. Chem. Chem. Phys. 7, 3297 (2005).

----- AuxJ basis set information -----
Your calculation utilizes the auxiliary basis: def2/J
   H-Rn: F. Weigend, Phys. Chem. Chem. Phys. 8, 1057 (2006).
   Fr-Lr: K. Eichkorn, F. Weigend, O. Treutler, R. Ahlrichs; Theor. Chem. Acc. 97, 119 (1997).

================================================================================
                                        WARNINGS
                       Please study these warnings very carefully!
================================================================================



WARNING: Found flag for RIJCOSX approximation but no HF exchange needed!
  ===> : RIJCOSX  will be disabled and Split-RI-J is turned on

================================================================================
                                       INPUT FILE
================================================================================
NAME = orca.inp
|  1> ! PBE def2-SVP def2/J RIJCOSX TightSCF D4 EnGrad CHELPG 
|  2> %maxcore 4000
|  3> 
|  4> %pal
|  5>   nprocs 8
|  6> end
|  7> 
|  8> %scf
|  9>   MaxIter 50
| 10>   DIISStart 3
| 11>   SOSCFStart 8
| 12>   # 金属体系有时加点电子温度有利于收敛（单位 K）
| 13> end
| 14> 
| 15> %output
| 16>   PrintLevel Normal
| 17>   Print[ P_OrbEn ] 2
| 18>   Print[ P_Mulliken ] 1
| 19>   Print[ P_Loewdin ] 1
| 20>   Print[ P_Mayer ] 1
| 21>   Print[ P_Hirshfeld ] 1
| 22>   Print[ P_MBIS ] 1
| 23> end
| 24> 
| 25> %elprop
| 26>   Dipole true
| 27>   Quadrupole true
| 28>   Polar true
| 29> end
| 30>  
| 31> *xyz 0 1 
| 32> Al   1.65191420786455 -2.7205062041206025 0.09106999639351876
| 33> Zn   -0.7900979599711329 2.7387485039569173 0.06354460250106367
| 34> Zn   1.7201129079022617 -0.1501466216589359 0.056891179186126704
| 35> Al   -0.8141437052473341 0.06122667136554748 0.08015432637772779
| 36> *
| 37> 
| 38>                          ****END OF INPUT****
================================================================================

                     *******************************
                     * Energy+Gradient Calculation *
                     *******************************

---------------------------------
CARTESIAN COORDINATES (ANGSTROEM)
---------------------------------
  Al     1.651914   -2.720506    0.091070
  Zn    -0.790098    2.738749    0.063545
  Zn     1.720113   -0.150147    0.056891
  Al    -0.814144    0.061227    0.080154

----------------------------
CARTESIAN COORDINATES (A.U.)
----------------------------
  NO LB      ZA    FRAG     MASS         X           Y           Z
   0 Al   13.0000    0    26.982    3.121665   -5.141012    0.172097
   1 Zn   30.0000    0    65.380   -1.493069    5.175485    0.120082
   2 Zn   30.0000    0    65.380    3.250542   -0.283736    0.107509
   3 Al   13.0000    0    26.982   -1.538509    0.115702    0.151470

--------------------------------
INTERNAL COORDINATES (ANGSTROEM)
--------------------------------
 Al     0   0   0     0.000000000000     0.00000000     0.00000000
 Zn     1   0   0     5.980605574926     0.00000000     0.00000000
 Zn     1   2   0     2.571491325551    25.62330478     0.00000000
 Al     3   1   2     2.543162681449    93.24054250   359.58995918

---------------------------
INTERNAL COORDINATES (A.U.)
---------------------------
 Al     0   0   0     0.000000000000     0.00000000     0.00000000
 Zn     1   0   0    11.301706651612     0.00000000     0.00000000
 Zn     1   2   0     4.859414361046    25.62330478     0.00000000
 Al     3   1   2     4.805880981947    93.24054250   359.58995918

---------------------
BASIS SET INFORMATION
---------------------
There are 2 groups of distinct atoms

 Group   1 Type Al  : 10s7p1d contracted to 4s3p1d pattern {5311/511/1}
 Group   2 Type Zn  : 14s9p5d1f contracted to 5s3p2d1f pattern {63311/531/41/1}

Atom   0Al   basis set group =>   1
Atom   1Zn   basis set group =>   2
Atom   2Zn   basis set group =>   2
Atom   3Al   basis set group =>   1
---------------------------------
AUXILIARY/J BASIS SET INFORMATION
---------------------------------
There are 2 groups of distinct atoms

 Group   1 Type Al  : 14s5p5d2f1g contracted to 8s4p3d1f1g pattern {71111111/2111/311/2/1}
 Group   2 Type Zn  : 19s5p5d3f3g contracted to 8s5p5d2f3g pattern {121111111/11111/11111/21/111}

Atom   0Al   basis set group =>   1
Atom   1Zn   basis set group =>   2
Atom   2Zn   basis set group =>   2
Atom   3Al   basis set group =>   1


           ************************************************************
           *        Program running with 8 parallel MPI-processes     *
           *              working on a common directory               *
           ************************************************************
------------------------------------------------------------------------------
                             ORCA STARTUP CALCULATIONS
                           -- RI-GTO INTEGRALS CHOSEN --
------------------------------------------------------------------------------
------------------------------------------------------------------------------
                   ___                                                        
                  /   \      - P O W E R E D   B Y -                         
                 /     \                                                     
                 |  |  |   _    _      __       _____    __    __             
                 |  |  |  | |  | |    /  \     |  _  \  |  |  /  |          
                  \  \/   | |  | |   /    \    | | | |  |  | /  /          
                 / \  \   | |__| |  /  /\  \   | |_| |  |  |/  /          
                |  |  |   |  __  | /  /__\  \  |    /   |      \           
                |  |  |   | |  | | |   __   |  |    \   |  |\   \          
                \     /   | |  | | |  |  |  |  | |\  \  |  | \   \       
                 \___/    |_|  |_| |__|  |__|  |_| \__\ |__|  \__/        
                                                                              
                      - O R C A' S   B I G   F R I E N D -                    
                                      &                                       
                       - I N T E G R A L  F E E D E R -                       
                                                                              
 v1 FN, 2020, v2 2021, v3 2022-2024                                           
------------------------------------------------------------------------------


----------------------
SHARK INTEGRAL PACKAGE
----------------------

Number of atoms                             ...      4
Number of basis functions                   ...     98
Number of shells                            ...     38
Maximum angular momentum                    ...      3
Integral batch strategy                     ... SHARK/LIBINT Hybrid
RI-J (if used) integral strategy            ... SPLIT-RIJ (Revised 2003 algorithm where possible)
Printlevel                                  ...      1
Contraction scheme used                     ... SEGMENTED contraction
Prescreening option                         ... SCHWARTZ
   Thresh                                   ... 2.500e-11
   Tcut                                     ... 2.500e-12
   Tpresel                                  ... 2.500e-12 
Coulomb Range Separation                    ... NOT USED
Exchange Range Separation                   ... NOT USED
Multipole approximations                    ... NOT USED
Finite Nucleus Model                        ... NOT USED
CABS basis                                  ... NOT available
Auxiliary Coulomb fitting basis             ... AVAILABLE
   # of basis functions in Aux-J            ...    280
   # of shells in Aux-J                     ...     80
   Maximum angular momentum in Aux-J        ...      4
Auxiliary J/K fitting basis                 ... NOT available
Auxiliary Correlation fitting basis         ... NOT available
Auxiliary 'external' fitting basis          ... NOT available

Checking pre-screening integrals            ... done (  0.0 sec) Dimension = 38
   => SHARK Basis and OBASIS are compatible. Storing Pre-screening
Shell pair information
Shell pair cut-off parameter TPreSel        ...   2.5e-12
Total number of shell pairs                 ...       741
Shell pairs after pre-screening             ...       631
Total number of primitive shell pairs       ...      4591
Primitive shell pairs kept                  ...      2620
          la=0 lb=0:    142 shell pairs
          la=1 lb=0:    186 shell pairs
          la=1 lb=1:     71 shell pairs
          la=2 lb=0:     92 shell pairs
          la=2 lb=1:     67 shell pairs
          la=2 lb=2:     19 shell pairs
          la=3 lb=0:     25 shell pairs
          la=3 lb=1:     18 shell pairs
          la=3 lb=2:      9 shell pairs
          la=3 lb=3:      2 shell pairs

Checking whether 4 symmetric matrices of dimension 98 fit in memory
:Max Core in MB      =   4000.00
 MB in use           =      4.24
 MB left             =   3995.76
 MB needed           =      0.15
 Data fit in memory  = YES
Calculating RI/J V-Matrix + Cholesky decomp.... done (  0.0 sec)
Calculating Nuclear repulsion               ... done (  0.0 sec) ENN=    421.488972928762 Eh

Diagonalization of the overlap matrix:
Smallest eigenvalue                        ... 3.587e-02
Time for diagonalization                   ...    0.001 sec
Threshold for overlap eigenvalues          ... 1.000e-07
Number of eigenvalues below threshold      ... 0
Time for construction of square roots      ...    0.002 sec
Total time needed                          ...    0.008 sec

-------------------
DFT GRID GENERATION
-------------------

General Integration Accuracy     IntAcc      ... 4.388
Radial Grid Type                 RadialGrid  ... OptM3 with GC (2021)
Angular Grid (max. ang.)         AngularGrid ... 4 (Lebedev-302)
Angular grid pruning method      GridPruning ... 4 (adaptive)
Weight generation scheme         WeightScheme... mBecke (2022)
Basis function cutoff            BFCut       ... 1.0000e-11
Integration weight cutoff        WCut        ... 1.0000e-14
Partially contracted basis set               ... off
Rotationally invariant grid construction     ... off
Angular grids for H and He will be reduced by one unit
Core-polarized basis detected: some atoms will have their core
                               angular grid increased.

Total number of grid points                  ...    37305
Total number of batches                      ...      585
Average number of points per batch           ...       63
Average number of grid points per atom       ...     9326
Grids setup in   0.2 sec
Initializing property integral containers    ... done (  0.0 sec)

SHARK setup successfully completed in   0.3 seconds

Maximum memory used throughout the entire STARTUP-calculation: 13.9 MB


           ************************************************************
           *        Program running with 8 parallel MPI-processes     *
           *              working on a common directory               *
           ************************************************************
-------------------------------------------------------------------------------
                                 ORCA GUESS
                   Start orbitals & Density for SCF / CASSCF
-------------------------------------------------------------------------------

------------
SCF SETTINGS
------------
Hamiltonian:
 Density Functional     Method          .... DFT(GTOs)
 Exchange Functional    Exchange        .... PBE
   PBE kappa parameter   XKappa         ....  0.804000
   PBE mue parameter    XMuePBE         ....  0.219520
 Correlation Functional Correlation     .... PBE
   PBE beta parameter  CBetaPBE         ....  0.066725
 LDA part of GGA corr.  LDAOpt          .... PW91-LDA
 Gradients option       PostSCFGGA      .... off
   NL short-range parameter             ....  6.400000
 RI-approximation to the Coulomb term is turned on
   Number of AuxJ basis functions       .... 280


General Settings:
 Integral files         IntName         .... orca
 Hartree-Fock type      HFTyp           .... RHF
 Total Charge           Charge          ....    0
 Multiplicity           Mult            ....    1
 Number of Electrons    NEL             ....   86
 Basis Dimension        Dim             ....   98
 Nuclear Repulsion      ENuc            ....    421.4889729288 Eh

Convergence Acceleration:
 AO-DIIS                CNVDIIS         .... on
   Start iteration      DIISMaxIt       ....    12
   Startup error        DIISStart       ....  3.000000
   # of expansion vecs  DIISMaxEq       ....     5
   Bias factor          DIISBfac        ....   1.050
   Max. coefficient     DIISMaxC        ....  10.000
 MO-DIIS                CNVKDIIS        .... off
 Trust-Rad. Augm. Hess. CNVTRAH         .... auto
   Auto Start mean grad. ratio tolernc. ....  1.125000
   Auto Start start iteration           ....    50
   Auto Start num. interpolation iter.  ....    10
   Max. Number of Micro iterations      ....    24
   Max. Number of Macro iterations      .... Maxiter - #DIIS iter
   Number of Davidson start vectors     ....     2
   Converg. threshold    (grad. norm)   ....   1.000e-05
   Grad. Scal. Fac. for Micro threshold ....   0.100
   Minimum threshold for Micro iter.    ....   1.000e-02
   NR start threshold (gradient norm)   ....   1.000e-04
   Initial trust radius                 ....   0.400
   Minimum AH scaling param. (alpha)    ....   1.000
   Maximum AH scaling param. (alpha)    .... 1000.000
   Quad. conv. algorithm                .... NR
   White noise on init. David. guess    .... on
   Maximum white noise                  ....   0.010
   Pseudo random numbers                .... off
   Inactive MOs                         .... canonical
   Orbital update algorithm             .... Taylor
   Preconditioner                       .... Diag
   Full preconditioner red. dimension   ....   250
 SOSCF                 CNVSOSCF           .... on
   Start iteration     SOSCFMaxIt         ....   150
   Startup grad/error  SOSCFStart         ....  8.000000
   Hessian update      SOSCFHessUp        .... L-BFGS
   Autom. constraints  SOSCFAutoConstrain .... off
 Level Shifting         CNVShift        .... on
   Level shift para.    LevelShift      ....    0.2500
   Turn off err/grad.   ShiftErr        ....    0.0010
 Zerner damping         CNVZerner       .... off
 Static damping         CNVDamp         .... on
   Fraction old density DampFac         ....    0.7000
   Max. Damping (<1)    DampMax         ....    0.9800
   Min. Damping (>=0)   DampMin         ....    0.0000
   Turn off err/grad.   DampErr         ....    0.1000

SCF Procedure:
 Maximum # iterations   MaxIter         ....    50
 SCF integral mode      SCFMode         .... Direct
   Integral package                     .... SHARK and LIBINT hybrid scheme
 Reset frequency        DirectResetFreq ....    20
 Integral Threshold     Thresh          ....  2.500e-11 Eh
 Primitive CutOff       TCut            ....  2.500e-12 Eh

Convergence Tolerance:
 Convergence Check Mode ConvCheckMode   .... Total+1el-Energy
 Convergence forced     ConvForced      .... 0
 Energy Change          TolE            ....  1.000e-08 Eh
 1-El. energy change                    ....  1.000e-05 Eh
 Orbital Gradient       TolG            ....  1.000e-05
 Orbital Rotation angle TolX            ....  1.000e-05
 DIIS Error             TolErr          ....  5.000e-07

------------------------------
INITIAL GUESS: MODEL POTENTIAL
------------------------------
Loading Hartree-Fock densities                     ... done
Calculating cut-offs                               ... done
Initializing the effective Hamiltonian             ... done
Setting up the integral package (SHARK)            ... done
Starting the Coulomb interaction                   ... done (   0.0 sec)
Making the grid                                    ... done (   0.1 sec)
Mapping shells                                     ... done
Starting the XC term evaluation                    ... done (   0.0 sec)
  promolecular density results
     # of electrons  =     85.999484593
     EX              =   -175.108870695
     EC              =     -3.762733417
     EX+EC           =   -178.871604112
Transforming the Hamiltonian                       ... done (   0.0 sec)
Diagonalizing the Hamiltonian                      ... done (   0.0 sec)
Back transforming the eigenvectors                 ... done (   0.0 sec)
Now organizing SCF variables                       ... done
                      ------------------
                      INITIAL GUESS DONE (   0.1 sec)
                      ------------------
             **** ENERGY FILE WAS UPDATED (orca.en.tmp) ****
Finished Guess after   0.2 sec
Maximum memory used throughout the entire GUESS-calculation: 8.0 MB


           ************************************************************
           *        Program running with 8 parallel MPI-processes     *
           *              working on a common directory               *
           ************************************************************

-------------------------------------------------------------------------------------------
                                      ORCA LEAN-SCF
                              memory conserving SCF solver
-------------------------------------------------------------------------------------------

----------------------------------------D-I-I-S--------------------------------------------
Iteration    Energy (Eh)           Delta-E    RMSDP     MaxDP     DIISErr   Damp  Time(sec)
-------------------------------------------------------------------------------------------
               ***  Starting incremental Fock matrix formation  ***
                              *** Initializing SOSCF ***
---------------------------------------S-O-S-C-F--------------------------------------
Iteration    Energy (Eh)           Delta-E    RMSDP     MaxDP     MaxGrad    Time(sec)
--------------------------------------------------------------------------------------
    1    -4041.9716599136650075     0.00e+00  3.91e-02  3.89e-01  2.71e-02     0.1
               *** Restarting incremental Fock matrix formation ***
               *** Scaled step length from 0.377595 to 0.200000 ***
    2    -4041.9617273972303337     9.93e-03  2.45e-02  2.48e-01  1.28e-01     0.1
    3    -4042.0635179236028307    -1.02e-01  7.02e-03  8.84e-02  3.12e-02     0.1
    4    -4042.0700504865903895    -6.53e-03  4.07e-03  4.48e-02  5.05e-03     0.1
    5    -4042.0700796263868142    -2.91e-05  1.93e-03  1.87e-02  1.08e-02     0.1
    6    -4042.0708012586242148    -7.22e-04  9.71e-04  1.21e-02  1.06e-03     0.1
    7    -4042.0708200962649244    -1.88e-05  4.35e-04  4.40e-03  1.09e-03     0.1
    8    -4042.0708438082415341    -2.37e-05  2.36e-04  1.68e-03  3.98e-04     0.1
    9    -4042.0708457221185199    -1.91e-06  1.02e-04  7.76e-04  3.54e-04     0.1
   10    -4042.0708474501966521    -1.73e-06  4.17e-05  2.86e-04  4.04e-05     0.2
   11    -4042.0708475771866688    -1.27e-07  2.76e-05  1.55e-04  1.86e-05     0.2
   12    -4042.0708476134409466    -3.63e-08  1.78e-05  1.22e-04  1.24e-05     0.1
   13    -4042.0708476272543521    -1.38e-08  1.83e-05  1.00e-04  9.53e-06     0.1
   14    -4042.0708476401891858    -1.29e-08  4.87e-05  2.90e-04  8.80e-06     0.1
   15    -4042.0708476670447453    -2.69e-08  7.14e-05  4.38e-04  1.19e-05     0.1
   16    -4042.0708476984932531    -3.14e-08  8.00e-05  4.95e-04  1.62e-05     0.1
   17    -4042.0708477260791369    -2.76e-08  3.43e-05  2.08e-04  1.08e-05     0.1
   18    -4042.0708477359753488    -9.90e-09  5.67e-06  3.86e-05  4.72e-06     0.1
                 **** Energy Check signals convergence ****

               *****************************************************
               *                     SUCCESS                       *
               *           SCF CONVERGED AFTER  18 CYCLES          *
               *****************************************************

             **** ENERGY FILE WAS UPDATED (orca.en.tmp) ****

----------------
TOTAL SCF ENERGY
----------------

Total Energy       :      -4042.07084773704491 Eh         -109990.33957 eV

Components:
Nuclear Repulsion  :        421.48897292876211 Eh           11469.29804 eV
Electronic Energy  :      -4463.55982066580691 Eh         -121459.63761 eV
One Electron Energy:      -6478.54647863656737 Eh         -176290.21210 eV
Two Electron Energy:       2014.98665797076046 Eh           54830.57450 eV

Virial components:
Potential Energy   :      -8076.08192146195506 Eh         -219761.36153 eV
Kinetic Energy     :       4034.01107372491060 Eh          109771.02197 eV
Virial Ratio       :          2.00199795535134

DFT components:
N(Alpha)           :       43.000008163202 electrons
N(Beta)            :       43.000008163202 electrons
N(Total)           :       86.000016326404 electrons
E(X)               :     -174.752187951758 Eh       
E(C)               :       -3.763841332741 Eh       
E(XC)              :     -178.516029284498 Eh       

---------------
SCF CONVERGENCE
---------------

  Last Energy change         ...    9.8962e-09  Tolerance :   1.0000e-08
  Last MAX-Density change    ...    3.8568e-05  Tolerance :   1.0000e-07
  Last RMS-Density change    ...    5.6666e-06  Tolerance :   5.0000e-09
  Last DIIS Error            ...    2.1294e-01  Tolerance :   5.0000e-07
  Last Orbital Gradient      ...    4.7232e-06  Tolerance :   1.0000e-05
  Last Orbital Rotation      ...    2.5026e-05  Tolerance :   1.0000e-05


----------------
ORBITAL ENERGIES
----------------

  NO   OCC          E(Eh)            E(eV) 
   0   2.0000    -345.700724     -9406.9950 
   1   2.0000    -345.694302     -9406.8202 
   2   2.0000     -55.400135     -1507.5143 
   3   2.0000     -55.379793     -1506.9608 
   4   2.0000     -41.668399     -1133.8548 
   5   2.0000     -41.661672     -1133.6717 
   6   2.0000     -36.751498     -1000.0591 
   7   2.0000     -36.751120     -1000.0488 
   8   2.0000     -36.749863     -1000.0146 
   9   2.0000     -36.744244      -999.8617 
  10   2.0000     -36.744016      -999.8555 
  11   2.0000     -36.743711      -999.8472 
  12   2.0000      -4.600165      -125.1769 
  13   2.0000      -4.597164      -125.0952 
  14   2.0000      -3.952318      -107.5481 
  15   2.0000      -3.932947      -107.0209 
  16   2.0000      -3.036579       -82.6295 
  17   2.0000      -3.035838       -82.6093 
  18   2.0000      -3.032842       -82.5278 
  19   2.0000      -3.031495       -82.4912 
  20   2.0000      -3.030428       -82.4621 
  21   2.0000      -3.030210       -82.4562 
  22   2.0000      -2.559918       -69.6589 
  23   2.0000      -2.558113       -69.6098 
  24   2.0000      -2.556377       -69.5625 
  25   2.0000      -2.539671       -69.1080 
  26   2.0000      -2.539016       -69.0901 
  27   2.0000      -2.537271       -69.0426 
  28   2.0000      -0.401719       -10.9313 
  29   2.0000      -0.396493       -10.7891 
  30   2.0000      -0.394284       -10.7290 
  31   2.0000      -0.390793       -10.6340 
  32   2.0000      -0.389953       -10.6112 
  33   2.0000      -0.389616       -10.6020 
  34   2.0000      -0.388910       -10.5828 
  35   2.0000      -0.388256       -10.5650 
  36   2.0000      -0.387383       -10.5412 
  37   2.0000      -0.387372       -10.5409 
  38   2.0000      -0.335350        -9.1253 
  39   2.0000      -0.290161        -7.8957 
  40   2.0000      -0.220957        -6.0125 
  41   2.0000      -0.193894        -5.2761 
  42   2.0000      -0.119526        -3.2525 
  43   0.0000      -0.123173        -3.3517 
  44   0.0000      -0.119520        -3.2523 
  45   0.0000      -0.083505        -2.2723 
  46   0.0000      -0.074338        -2.0228 
  47   0.0000      -0.060356        -1.6424 
  48   0.0000      -0.000595        -0.0162 
  49   0.0000       0.015945         0.4339 
  50   0.0000       0.046934         1.2771 
  51   0.0000       0.055746         1.5169 
  52   0.0000       0.070401         1.9157 
  53   0.0000       0.111492         3.0339 
  54   0.0000       0.112649         3.0653 
  55   0.0000       0.137353         3.7376 
  56   0.0000       0.148662         4.0453 
  57   0.0000       0.169800         4.6205 
  58   0.0000       0.277780         7.5588 
  59   0.0000       0.283942         7.7264 
  60   0.0000       0.295616         8.0441 
  61   0.0000       0.305673         8.3178 
  62   0.0000       0.310393         8.4462 
  63   0.0000       0.331101         9.0097 
  64   0.0000       0.387276        10.5383 
  65   0.0000       0.389737        10.6053 
  66   0.0000       0.398469        10.8429 
  67   0.0000       0.404000        10.9934 
  68   0.0000       0.417773        11.3682 
  69   0.0000       0.428266        11.6537 
  70   0.0000       0.496783        13.5181 
  71   0.0000       0.522911        14.2291 
  72   0.0000       0.552072        15.0226 
  73   0.0000       0.596039        16.2190 
  74   0.0000       1.258342        34.2412 
  75   0.0000       1.259196        34.2645 
  76   0.0000       1.268482        34.5172 
  77   0.0000       1.272906        34.6375 
  78   0.0000       1.290842        35.1256 
  79   0.0000       1.298376        35.3306 
  80   0.0000       1.315220        35.7890 
  81   0.0000       1.350625        36.7524 
  82   0.0000       1.373478        37.3742 
  83   0.0000       1.469015        39.9739 
  84   0.0000       6.398908       174.1231 
  85   0.0000       6.399140       174.1295 
  86   0.0000       6.401309       174.1885 
  87   0.0000       6.401836       174.2028 
  88   0.0000       6.402148       174.2113 
  89   0.0000       6.402334       174.2164 
  90   0.0000       6.402475       174.2202 
  91   0.0000       6.402583       174.2231 
  92   0.0000       6.403072       174.2364 
  93   0.0000       6.403876       174.2583 
  94   0.0000       6.403897       174.2589 
  95   0.0000       6.404950       174.2875 
  96   0.0000       6.405446       174.3011 
  97   0.0000       6.405582       174.3048 

                    ********************************
                    * MULLIKEN POPULATION ANALYSIS *
                    ********************************

-----------------------
MULLIKEN ATOMIC CHARGES
-----------------------
   0 Al:   -0.018672
   1 Zn:    0.149337
   2 Zn:    0.097220
   3 Al:   -0.227885
Sum of atomic charges:   -0.0000000

--------------------------------
MULLIKEN REDUCED ORBITAL CHARGES
--------------------------------
  0 Als       :     5.881971  s :     5.881971
      pz      :     2.780049  p :     7.114247
      px      :     2.075647
      py      :     2.258551
      dz2     :     0.003147  d :     0.022454
      dxz     :     0.000163
      dyz     :     0.005537
      dx2y2   :     0.009040
      dxy     :     0.004567

  1 Zns       :     7.708127  s :     7.708127
      pz      :     4.068074  p :    12.167401
      px      :     4.018735
      py      :     4.080592
      dz2     :     1.996168  d :     9.975132
      dxz     :     1.999964
      dyz     :     1.996540
      dx2y2   :     1.988476
      dxy     :     1.993984
      f0      :     0.000000  f :     0.000003
      f+1     :     0.000000
      f-1     :     0.000001
      f+2     :     0.000001
      f-2     :     0.000000
      f+3     :     0.000000
      f-3     :     0.000001

  2 Zns       :     7.500173  s :     7.500173
      pz      :     4.257053  p :    12.466251
      px      :     4.109761
      py      :     4.099437
      dz2     :     1.990486  d :     9.936349
      dxz     :     1.995422
      dyz     :     1.994479
      dx2y2   :     1.970687
      dxy     :     1.985275
      f0      :     0.000002  f :     0.000007
      f+1     :     0.000001
      f-1     :     0.000001
      f+2     :     0.000000
      f-2     :     0.000000
      f+3     :     0.000001
      f-3     :     0.000001

  3 Als       :     5.742175  s :     5.742175
      pz      :     2.895316  p :     7.449485
      px      :     2.272579
      py      :     2.281590
      dz2     :     0.005330  d :     0.036225
      dxz     :     0.005357
      dyz     :     0.001593
      dx2y2   :     0.018481
      dxy     :     0.005464


------------------------
MULLIKEN OVERLAP CHARGES
------------------------
B(  0-Al,  2-Zn) :   0.2075 B(  0-Al,  3-Al) :   0.2264 B(  1-Zn,  2-Zn) :   0.0723 
B(  1-Zn,  3-Al) :   0.1076 B(  2-Zn,  3-Al) :   0.2004 


                     *******************************
                     * LOEWDIN POPULATION ANALYSIS *
                     *******************************

----------------------
LOEWDIN ATOMIC CHARGES
----------------------
   0 Al:   -0.102286
   1 Zn:    0.276682
   2 Zn:    0.275792
   3 Al:   -0.450188

-------------------------------
LOEWDIN REDUCED ORBITAL CHARGES
-------------------------------
  0 Als       :     5.799408  s :     5.799408
      pz      :     2.776365  p :     7.267496
      px      :     2.092369
      py      :     2.398762
      dz2     :     0.005698  d :     0.035382
      dxz     :     0.000232
      dyz     :     0.006051
      dx2y2   :     0.018373
      dxy     :     0.005028

  1 Zns       :     7.547006  s :     7.547006
      pz      :     4.069320  p :    12.197041
      px      :     4.016545
      py      :     4.111175
      dz2     :     1.996866  d :     9.979267
      dxz     :     1.999965
      dyz     :     1.996985
      dx2y2   :     1.990745
      dxy     :     1.994707
      f0      :     0.000000  f :     0.000004
      f+1     :     0.000000
      f-1     :     0.000001
      f+2     :     0.000001
      f-2     :     0.000000
      f+3     :     0.000000
      f-3     :     0.000002

  2 Zns       :     7.228605  s :     7.228605
      pz      :     4.263653  p :    12.550242
      px      :     4.152074
      py      :     4.134515
      dz2     :     1.992586  d :     9.945351
      dxz     :     1.995952
      dyz     :     1.994858
      dx2y2   :     1.976026
      dxy     :     1.985929
      f0      :     0.000002  f :     0.000010
      f+1     :     0.000002
      f-1     :     0.000002
      f+2     :     0.000000
      f-2     :     0.000000
      f+3     :     0.000002
      f-3     :     0.000002

  3 Als       :     5.642541  s :     5.642541
      pz      :     2.888870  p :     7.748133
      px      :     2.418661
      py      :     2.440602
      dz2     :     0.010744  d :     0.059513
      dxz     :     0.005825
      dyz     :     0.001567
      dx2y2   :     0.035505
      dxy     :     0.005872


---------------------------------
LOEWDIN BOND ORDERS (THRESH 0.050000)
---------------------------------
B(  0-Al,  1-Zn) :   0.1216 B(  0-Al,  2-Zn) :   0.9927 B(  0-Al,  3-Al) :   1.0148 
B(  1-Zn,  2-Zn) :   0.0894 B(  1-Zn,  3-Al) :   0.9327 B(  2-Zn,  3-Al) :   1.0368 


------------------------------------------
LOEWDIN REDUCED ORBITAL POPULATIONS PER MO
-------------------------------------------
THRESHOLD FOR PRINTING IS 0.1%%
                      0         1         2         3         4         5   
                 -345.70072 -345.69430 -55.40013 -55.37979 -41.66840 -41.66167
                   2.00000   2.00000   2.00000   2.00000   2.00000   2.00000
                  --------  --------  --------  --------  --------  --------
 0 Al s               0.0       0.0     100.0       0.0       0.0       0.0
 1 Zn s               0.0     100.0       0.0       0.0       0.0     100.0
 2 Zn s             100.0       0.0       0.0       0.0     100.0       0.0
 3 Al s               0.0       0.0       0.0     100.0       0.0       0.0

                      6         7         8         9        10        11   
                 -36.75150 -36.75112 -36.74986 -36.74424 -36.74402 -36.74371
                   2.00000   2.00000   2.00000   2.00000   2.00000   2.00000
                  --------  --------  --------  --------  --------  --------
 1 Zn pz              0.0       0.0       0.0       0.0       0.0     100.0
 1 Zn px              0.0       0.0       0.0       0.6      99.3       0.0
 1 Zn py              0.0       0.0       0.0      99.4       0.6       0.0
 2 Zn pz              0.0       0.0     100.0       0.0       0.0       0.0
 2 Zn px             35.0      65.0       0.0       0.0       0.0       0.0
 2 Zn py             65.0      35.0       0.0       0.0       0.0       0.0

                     12        13        14        15        16        17   
                  -4.60017  -4.59716  -3.95232  -3.93295  -3.03658  -3.03584
                   2.00000   2.00000   2.00000   2.00000   2.00000   2.00000
                  --------  --------  --------  --------  --------  --------
 0 Al s               0.0       0.0     100.0       0.0       0.0       0.0
 0 Al py              0.2       0.0       0.0       0.0       0.0       0.0
 1 Zn s               0.0      99.8       0.0       0.0       0.0       0.0
 2 Zn s              99.5       0.0       0.0       0.0       0.0       0.0
 2 Zn px              0.0       0.0       0.0       0.0      23.6      76.3
 2 Zn py              0.0       0.0       0.0       0.0      76.3      23.6
 3 Al s               0.0       0.0       0.0      99.9       0.0       0.0
 3 Al px              0.2       0.0       0.0       0.0       0.0       0.0
 3 Al py              0.0       0.2       0.0       0.0       0.0       0.0

                     18        19        20        21        22        23   
                  -3.03284  -3.03150  -3.03043  -3.03021  -2.55992  -2.55811
                   2.00000   2.00000   2.00000   2.00000   2.00000   2.00000
                  --------  --------  --------  --------  --------  --------
 0 Al px              0.0       0.0       0.0       0.0      96.8       3.2
 0 Al py              0.0       0.0       0.0       0.0       3.2      96.8
 1 Zn pz              0.0       0.0     100.0       0.0       0.0       0.0
 1 Zn px              1.2      98.8       0.0       0.0       0.0       0.0
 1 Zn py             98.8       1.2       0.0       0.0       0.0       0.0
 2 Zn pz              0.0       0.0       0.0     100.0       0.0       0.0

                     24        25        26        27        28        29   
                  -2.55638  -2.53967  -2.53902  -2.53727  -0.40172  -0.39649
                   2.00000   2.00000   2.00000   2.00000   2.00000   2.00000
                  --------  --------  --------  --------  --------  --------
 0 Al s               0.0       0.0       0.0       0.0       1.1       0.7
 0 Al pz             99.9       0.0       0.0       0.0       0.0       0.0
 0 Al py              0.1       0.0       0.0       0.0       0.4       0.2
 0 Al dx2y2           0.0       0.0       0.0       0.0       0.1       0.0
 1 Zn s               0.0       0.0       0.0       0.0       0.1       0.3
 1 Zn dz2             0.0       0.0       0.0       0.0       1.1       7.1
 1 Zn dx2y2           0.0       0.0       0.0       0.0       3.6      25.4
 1 Zn dxy             0.0       0.0       0.0       0.0       0.2       0.7
 2 Zn s               0.0       0.0       0.0       0.0       0.0       0.4
 2 Zn dz2             0.0       0.0       0.0       0.0       0.1       8.4
 2 Zn dx2y2           0.0       0.0       0.0       0.0      87.7       7.5
 2 Zn dxy             0.0       0.0       0.0       0.0       2.5      46.4
 3 Al s               0.0       0.0       0.0       0.0       2.2       1.5
 3 Al pz              0.0       0.0       0.0      99.9       0.0       0.0
 3 Al px              0.0      50.4      49.5       0.0       0.5       0.1
 3 Al py              0.0      49.6      50.4       0.0       0.1       0.7

                     30        31        32        33        34        35   
                  -0.39428  -0.39079  -0.38995  -0.38962  -0.38891  -0.38826
                   2.00000   2.00000   2.00000   2.00000   2.00000   2.00000
                  --------  --------  --------  --------  --------  --------
 0 Al s               0.3       0.5       0.6       0.0       0.0       0.0
 0 Al pz              0.0       0.0       0.0       0.0       0.2       0.0
 0 Al px              0.2       0.0       0.0       0.0       0.0       0.0
 0 Al py              0.1       0.2       0.2       0.0       0.0       0.0
 1 Zn dz2             8.8       0.4       0.8       0.0       0.0       0.0
 1 Zn dxz             0.0       0.0       0.0       0.3       0.1       0.0
 1 Zn dyz             0.0       0.0       0.0      61.9      26.8      10.6
 1 Zn dx2y2          35.5       7.8       6.1       0.0       0.0       0.0
 1 Zn dxy             0.2      53.5      44.7       0.0       0.0       0.0
 2 Zn s               0.3       0.5       0.3       0.0       0.0       0.0
 2 Zn dz2             4.2      34.3      46.1       0.0       0.0       0.1
 2 Zn dxz             0.0       0.0       0.0      22.6       3.6      73.3
 2 Zn dyz             0.0       0.0       0.1      14.6      69.2      15.7
 2 Zn dx2y2           0.3       0.1       0.5       0.0       0.0       0.0
 2 Zn dxy            48.4       1.6       0.0       0.0       0.0       0.0
 3 Al s               1.2       0.2       0.3       0.0       0.0       0.0
 3 Al pz              0.0       0.0       0.0       0.4       0.0       0.1
 3 Al px              0.0       0.6       0.1       0.0       0.0       0.0
 3 Al py              0.1       0.1       0.1       0.0       0.0       0.0
 3 Al dx2y2           0.1       0.1       0.1       0.0       0.0       0.0

                     36        37        38        39        40        41   
                  -0.38738  -0.38737  -0.33535  -0.29016  -0.22096  -0.19389
                   2.00000   2.00000   2.00000   2.00000   2.00000   2.00000
                  --------  --------  --------  --------  --------  --------
 0 Al s               0.0       0.0      21.4      39.0      21.7       4.8
 0 Al px              0.0       0.0       0.2       0.4       0.6       3.2
 0 Al py              0.0       0.0       2.8       0.1       8.6       7.3
 0 Al dx2y2           0.0       0.0       0.1       0.0       0.2       0.3
 1 Zn s               0.0       0.0       6.5      20.6      37.4      12.4
 1 Zn px              0.0       0.0       0.0       0.0       0.2       0.6
 1 Zn py              0.0       0.0       1.2       1.7       0.3       2.2
 1 Zn dz2            80.5       0.1       0.7       0.3       0.0       0.0
 1 Zn dxz             0.2      99.4       0.0       0.0       0.0       0.0
 1 Zn dyz             0.0       0.4       0.0       0.0       0.0       0.0
 1 Zn dx2y2          18.6       0.0       1.5       0.8       0.0       0.1
 1 Zn dxy             0.1       0.0       0.1       0.0       0.0       0.1
 2 Zn s               0.0       0.0      25.3       1.9      11.9      21.3
 2 Zn px              0.0       0.0       1.6       1.3       1.2       3.2
 2 Zn py              0.0       0.0       0.8       4.4       0.7       0.7
 2 Zn dz2             0.5       0.0       5.8       0.1       0.0       0.0
 2 Zn dx2y2           0.0       0.0       0.0       2.1       0.5       0.1
 2 Zn dxy             0.0       0.0       0.1       0.1       0.0       0.1
 3 Al s               0.0       0.0      29.0      19.3       3.8      24.8
 3 Al px              0.0       0.0       2.6       0.9       4.3      11.6
 3 Al py              0.0       0.0       0.0       6.7       7.3       6.9
 3 Al dz2             0.0       0.0       0.1       0.0       0.0       0.2
 3 Al dx2y2           0.0       0.0       0.0       0.2       1.1       0.1

                     42        43        44        45        46        47   
                  -0.11953  -0.12317  -0.11952  -0.08350  -0.07434  -0.06036
                   2.00000   0.00000   0.00000   0.00000   0.00000   0.00000
                  --------  --------  --------  --------  --------  --------
 0 Al s               0.0       0.1       1.4       0.0       1.1       0.1
 0 Al pz             38.5       0.0       0.0      52.6       0.0       0.0
 0 Al px              0.0      41.2       0.5       0.0       0.0      51.1
 0 Al py              0.0       0.2      35.0       0.0      15.9       0.1
 0 Al dyz             0.2       0.0       0.0       0.0       0.0       0.0
 0 Al dx2y2           0.0       0.0       0.0       0.0       0.0       0.1
 0 Al dxy             0.0       0.3       0.0       0.0       0.0       0.7
 1 Zn s               0.0       8.2       3.4       0.0       5.4       1.5
 1 Zn pz              3.5       0.0       0.0       8.6       0.0       0.0
 1 Zn px              0.0       0.5       5.2       0.0       0.3       2.7
 1 Zn py              0.0      10.0       4.0       0.0      12.3       7.8
 1 Zn dyz             0.1       0.0       0.0       0.1       0.0       0.0
 1 Zn dx2y2           0.0       0.1       0.0       0.0       0.2       0.0
 1 Zn dxy             0.0       0.0       0.1       0.0       0.0       0.0
 2 Zn s               0.0       3.4       0.5       0.0      15.3       5.5
 2 Zn pz             13.2       0.0       0.0       0.1       0.0       0.0
 2 Zn px              0.0       9.1       4.0       0.0       8.4       8.6
 2 Zn py              0.0       0.6      15.9       0.0      12.3       0.7
 2 Zn dz2             0.0       0.0       0.0       0.0       0.1       0.1
 2 Zn dxz             0.2       0.0       0.0       0.2       0.0       0.0
 2 Zn dyz             0.1       0.0       0.0       0.3       0.0       0.0
 2 Zn dx2y2           0.0       0.0       0.3       0.0       0.1       0.2
 2 Zn dxy             0.0       0.4       0.1       0.0       0.1       0.1
 3 Al s               0.0       1.6       0.5       0.0       0.7       2.4
 3 Al pz             44.0       0.0       0.0      37.7       0.0       0.0
 3 Al px              0.0      11.3      21.1       0.0       8.6       8.9
 3 Al py              0.0      12.9       7.3       0.0      18.4       8.9
 3 Al dz2             0.0       0.0       0.0       0.0       0.0       0.2
 3 Al dxz             0.2       0.0       0.0       0.0       0.0       0.0
 3 Al dyz             0.0       0.0       0.0       0.3       0.0       0.0
 3 Al dx2y2           0.0       0.1       0.0       0.0       0.3       0.0
 3 Al dxy             0.0       0.0       0.5       0.0       0.4       0.2

                     48        49        50        51        52        53   
                  -0.00060   0.01595   0.04693   0.05575   0.07040   0.11149
                   0.00000   0.00000   0.00000   0.00000   0.00000   0.00000
                  --------  --------  --------  --------  --------  --------
 0 Al s               0.3       0.0       0.0      13.0       3.5      25.1
 0 Al pz              0.0       4.5       4.2       0.0       0.0       0.0
 0 Al px              0.2       0.0       0.0       0.2       0.2       0.3
 0 Al py              5.5       0.0       0.0       1.1       4.7       2.7
 0 Al dz2             0.2       0.0       0.0       0.0       1.7       0.0
 0 Al dyz             0.0       0.7       2.2       0.0       0.0       0.0
 0 Al dx2y2           0.8       0.0       0.0       0.2       4.7       0.1
 0 Al dxy             0.1       0.0       0.0       0.0       0.1       0.5
 1 Zn s               1.3       0.0       0.0      52.1      17.2       0.9
 1 Zn pz              0.0      71.2      13.8       0.0       0.0       0.0
 1 Zn px             65.0       0.0       0.0       5.7      11.7       2.1
 1 Zn py              2.0       0.0       0.0       2.3       1.7       4.4
 1 Zn dx2y2           0.0       0.0       0.0       0.0       0.0       0.1
 2 Zn s              14.7       0.0       0.0       2.3      44.0       3.0
 2 Zn pz              0.0      17.5      62.5       0.0       0.0       0.0
 2 Zn px              3.4       0.0       0.0       4.2       0.2       3.5
 2 Zn py              0.0       0.0       0.0       0.3       1.9       0.9
 2 Zn dz2             0.0       0.0       0.0       0.0       0.0       0.1
 2 Zn dx2y2           0.1       0.0       0.0       0.4       0.0       0.1
 3 Al s               0.1       0.0       0.0       0.2       1.3      51.9
 3 Al pz              0.0       4.0      14.3       0.0       0.0       0.0
 3 Al px              1.7       0.0       0.0       4.5       4.6       3.4
 3 Al py              0.9       0.0       0.0       7.6       0.0       0.5
 3 Al dz2             0.1       0.0       0.0       0.2       1.1       0.0
 3 Al dxz             0.0       0.4       2.4       0.0       0.0       0.0
 3 Al dyz             0.0       1.6       0.3       0.0       0.0       0.0
 3 Al dx2y2           1.9       0.0       0.0       5.6       1.3       0.2
 3 Al dxy             1.6       0.0       0.0       0.0       0.2       0.0

                     54        55        56        57        58        59   
                   0.11265   0.13735   0.14866   0.16980   0.27778   0.28394
                   0.00000   0.00000   0.00000   0.00000   0.00000   0.00000
                  --------  --------  --------  --------  --------  --------
 0 Al s              24.9       6.0      24.4       0.1       0.0       0.0
 0 Al pz              0.0       0.0       0.0       0.0       0.0      66.2
 0 Al px              1.3       1.6       0.2       0.5       2.4       0.0
 0 Al py              8.8       1.0       7.2       0.3      38.9       0.0
 0 Al dz2             0.3       2.5       3.8       0.0       1.0       0.0
 0 Al dxz             0.0       0.0       0.0       0.0       0.0       0.9
 0 Al dyz             0.0       0.0       0.0       0.0       0.0       0.3
 0 Al dx2y2           3.1       0.4      10.2       0.1       0.4       0.0
 0 Al dxy             1.1       0.1       0.6       1.4       8.9       0.0
 1 Zn s               9.0      15.0       1.1       2.1       0.1       0.0
 1 Zn px              1.9       0.3       0.4       0.2       1.3       0.0
 1 Zn py              0.5      21.3       0.1      14.8       0.3       0.0
 1 Zn dx2y2           0.1       0.1       0.1       0.2       0.0       0.0
 1 Zn dxy             0.0       0.1       0.0       0.1       0.1       0.0
 2 Zn s               0.6      10.1      21.9       3.8       0.1       0.0
 2 Zn pz              0.0       0.0       0.0       0.0       0.0       0.4
 2 Zn px              2.4      13.5       1.9      14.9       1.1       0.0
 2 Zn py             24.1       0.3      17.5       0.1       2.9       0.0
 2 Zn dz2             0.0       0.1       0.1       0.0       0.0       0.0
 2 Zn dx2y2           0.4       0.0       0.0       0.0       2.5       0.0
 2 Zn dxy             0.0       0.0       0.1       0.3       0.2       0.0
 3 Al s              16.2       0.1       6.7      23.2       0.1       0.0
 3 Al pz              0.0       0.0       0.0       0.0       0.0      29.5
 3 Al px              1.2       5.5       0.2       8.5      34.2       0.0
 3 Al py              2.6       9.5       1.6       5.4       2.5       0.0
 3 Al dz2             0.1       0.0       1.5      23.5       0.6       0.0
 3 Al dyz             0.0       0.0       0.0       0.0       0.0       2.6
 3 Al dx2y2           0.0      12.1       0.1       0.1       0.6       0.0
 3 Al dxy             1.3       0.4       0.3       0.2       1.8       0.0

                     60        61        62        63        64        65   
                   0.29562   0.30567   0.31039   0.33110   0.38728   0.38974
                   0.00000   0.00000   0.00000   0.00000   0.00000   0.00000
                  --------  --------  --------  --------  --------  --------
 0 Al s               0.0       1.2       0.0       0.4       0.0       0.1
 0 Al pz              0.0       0.0      29.2       0.0       0.8       0.0
 0 Al px             63.1      10.2       0.0      16.4       0.0       0.0
 0 Al py             17.7       0.5       0.0      17.6       0.0       4.7
 0 Al dz2             0.1       4.4       0.0       0.3       0.1      42.0
 0 Al dxz             0.0       0.0       3.0       0.0      56.0       0.1
 0 Al dyz             0.0       0.0       3.5       0.0      19.6       0.0
 0 Al dx2y2           0.1       0.5       0.0       0.2       0.0      24.8
 0 Al dxy             6.6       0.9       0.0      13.4       0.0       0.0
 1 Zn s               0.1       0.1       0.0       0.1       0.0       0.1
 1 Zn pz              0.0       0.0       0.4       0.0       0.0       0.0
 1 Zn px              0.1       0.1       0.0       0.3       0.0       0.5
 1 Zn py              0.6       1.7       0.0       1.1       0.0       0.0
 1 Zn dz2             0.0       0.2       0.0       0.1       0.0       0.0
 1 Zn dx2y2           0.1       0.6       0.0       0.4       0.0       0.0
 1 Zn dxy             0.0       0.0       0.0       0.1       0.0       0.2
 2 Zn s               1.0       0.3       0.0       0.2       0.0       0.0
 2 Zn px              0.0       0.7       0.0       0.3       0.0       0.3
 2 Zn py              0.6       0.1       0.0       0.4       0.0       0.6
 2 Zn dz2             0.2       0.2       0.0       0.6       0.0       0.3
 2 Zn dxz             0.0       0.0       0.0       0.0       0.5       0.0
 2 Zn dyz             0.0       0.0       0.0       0.0       0.4       0.0
 2 Zn dx2y2           0.2       0.3       0.0       0.0       0.0       0.1
 2 Zn dxy             0.1       0.0       0.0       0.5       0.0       0.2
 3 Al s               0.4       0.2       0.0       0.2       0.0       0.1
 3 Al pz              0.0       0.0      61.0       0.0       0.1       0.0
 3 Al px              4.9      21.4       0.0      10.7       0.0       1.4
 3 Al py              2.3      49.8       0.0      22.0       0.0       3.9
 3 Al dz2             0.3       0.7       0.0       0.4       0.0       0.0
 3 Al dxz             0.0       0.0       2.7       0.0      22.5       0.0
 3 Al dyz             0.0       0.0       0.1       0.0       0.0       0.0
 3 Al dx2y2           0.0       0.2       0.0       0.7       0.0       0.4
 3 Al dxy             1.4       5.8       0.0      13.4       0.0      20.3

                     66        67        68        69        70        71   
                   0.39847   0.40400   0.41777   0.42827   0.49678   0.52291
                   0.00000   0.00000   0.00000   0.00000   0.00000   0.00000
                  --------  --------  --------  --------  --------  --------
 0 Al s               0.0       0.5       0.0       0.0       0.4       1.2
 0 Al pz              0.5       0.0       2.7       0.2       0.0       0.0
 0 Al px              0.0       0.1       0.0       0.0       4.6       0.0
 0 Al py              0.0       7.0       0.0       0.0       0.4       1.3
 0 Al dz2             0.0      16.9       0.0       0.0       0.3       6.7
 0 Al dxz            24.2       0.0      12.4       3.3       0.0       0.0
 0 Al dyz            44.4       0.0       3.8      23.8       0.0       0.0
 0 Al dx2y2           0.0       2.4       0.0       0.0       8.3       8.8
 0 Al dxy             0.0      30.1       0.0       0.0      29.7       1.0
 1 Zn s               0.0       0.1       0.0       0.0       0.0       3.5
 1 Zn pz              0.9       0.0       1.2       0.3       0.0       0.0
 1 Zn px              0.0       0.7       0.0       0.0       0.2       0.0
 1 Zn py              0.0       0.1       0.0       0.0       0.1       6.5
 1 Zn dz2             0.0       0.0       0.0       0.0       0.1       0.7
 1 Zn dyz             0.3       0.0       0.7       0.1       0.0       0.0
 1 Zn dx2y2           0.0       0.0       0.0       0.0       0.2       2.0
 1 Zn dxy             0.0       0.3       0.0       0.0       0.4       0.0
 2 Zn s               0.0       0.2       0.0       0.0       0.0       1.8
 2 Zn pz              0.6       0.0       0.1       5.4       0.0       0.0
 2 Zn px              0.0       3.8       0.0       0.0       3.1       0.2
 2 Zn py              0.0       1.0       0.0       0.0       4.3       1.0
 2 Zn dz2             0.0       0.4       0.0       0.0       0.0       0.4
 2 Zn dxz             0.0       0.0       0.2       1.0       0.0       0.0
 2 Zn dyz             0.9       0.0       0.0       0.3       0.0       0.0
 2 Zn dx2y2           0.0       0.1       0.0       0.0       1.7       1.0
 2 Zn dxy             0.0       1.3       0.0       0.0       0.1       0.1
 3 Al s               0.0       0.5       0.0       0.0       0.2       2.8
 3 Al pz              6.9       0.0       0.3       1.3       0.0       0.0
 3 Al px              0.0      15.6       0.0       0.0       0.1       0.3
 3 Al py              0.0       1.6       0.0       0.0       5.9       9.8
 3 Al dz2             0.0       0.9       0.0       0.0       1.3      31.7
 3 Al dxz             2.1       0.0      10.5      57.4       0.0       0.0
 3 Al dyz            19.1       0.0      68.1       6.8       0.0       0.0
 3 Al dx2y2           0.0       1.1       0.0       0.0      11.0      18.2
 3 Al dxy             0.0      15.2       0.0       0.0      27.4       0.9

                     72        73        74        75        76        77   
                   0.55207   0.59604   1.25834   1.25920   1.26848   1.27291
                   0.00000   0.00000   0.00000   0.00000   0.00000   0.00000
                  --------  --------  --------  --------  --------  --------
 0 Al s               4.8       0.7       0.0       0.0       0.0       0.0
 0 Al px              1.2       0.0       0.0       0.0       0.0       0.0
 0 Al py              6.2       1.2       0.0       0.0       0.0       0.0
 0 Al dz2            15.8       2.5       0.0       0.0       0.0       0.0
 0 Al dx2y2          11.2      19.9       0.0       0.0       0.0       0.0
 0 Al dxy             3.2       0.0       0.0       0.0       0.2       0.0
 1 Zn s               0.3       0.6       0.0       0.0       0.0       0.0
 1 Zn py              0.5       1.2       0.0       0.0       0.0       0.0
 1 Zn dz2             0.1       0.4       0.0      74.0       0.0       0.0
 1 Zn dxz             0.0       0.0      99.2       0.0       0.0       0.5
 1 Zn dyz             0.0       0.0       0.3       0.0       0.0      88.2
 1 Zn dx2y2           0.2       1.0       0.0      25.5       0.6       0.0
 1 Zn dxy             0.1       0.0       0.0       0.4      78.0       0.0
 2 Zn s               0.0       9.1       0.0       0.0       0.0       0.0
 2 Zn px              1.5       5.8       0.0       0.0       0.0       0.0
 2 Zn py              3.2       3.4       0.0       0.0       0.0       0.0
 2 Zn dz2             0.0       4.2       0.0       0.0       0.0       0.0
 2 Zn dxz             0.0       0.0       0.5       0.0       0.0       7.2
 2 Zn dyz             0.0       0.0       0.0       0.0       0.0       2.9
 2 Zn dx2y2           3.6       0.2       0.0       0.0       0.0       0.0
 2 Zn dxy             0.1       0.0       0.0       0.1      20.6       0.0
 3 Al s               6.5       0.7       0.0       0.0       0.0       0.0
 3 Al px              5.4       2.8       0.0       0.0       0.2       0.0
 3 Al py              0.4       2.3       0.0       0.0       0.0       0.0
 3 Al dz2            31.2       3.5       0.0       0.0       0.0       0.0
 3 Al dxz             0.0       0.0       0.0       0.0       0.0       0.1
 3 Al dyz             0.0       0.0       0.0       0.0       0.0       0.8
 3 Al dx2y2           1.2      37.3       0.0       0.0       0.0       0.0
 3 Al dxy             3.2       3.0       0.0       0.0       0.1       0.0

                     78        79        80        81        82        83   
                   1.29084   1.29838   1.31522   1.35063   1.37348   1.46901
                   0.00000   0.00000   0.00000   0.00000   0.00000   0.00000
                  --------  --------  --------  --------  --------  --------
 0 Al s               0.0       0.0       0.0       0.1       0.2       0.3
 0 Al pz              0.1       0.0       0.0       0.0       0.0       0.0
 0 Al py              0.0       0.0       0.0       0.3       0.6       1.0
 0 Al dz2             0.0       0.0       0.0       0.2       0.3       0.5
 0 Al dyz             1.1       0.1       0.0       0.0       0.0       0.0
 0 Al dx2y2           0.0       0.0       0.0       0.4       0.8       1.4
 0 Al dxy             0.0       0.0       0.7       0.1       0.0       0.0
 1 Zn s               0.0       0.0       0.0       0.1       0.3       0.0
 1 Zn py              0.0       0.0       0.0       0.3       0.7       0.1
 1 Zn dz2             0.0       0.0       2.3       7.7      13.1       1.1
 1 Zn dxz             0.1       0.2       0.0       0.0       0.0       0.0
 1 Zn dyz             0.2      10.1       0.0       0.0       0.0       0.0
 1 Zn dx2y2           0.0       0.0       2.6      24.3      39.2       2.7
 1 Zn dxy             0.0       0.0      19.0       0.8       0.0       0.3
 2 Zn s               0.0       0.0       0.0       0.4       0.3       0.0
 2 Zn px              0.0       0.0       0.0       0.3       0.1       1.1
 2 Zn py              0.0       0.0       0.0       0.1       0.4       0.8
 2 Zn dz2             0.1       0.0       2.8      55.3      34.9       0.6
 2 Zn dxz            16.5      74.0       0.0       0.0       0.0       0.0
 2 Zn dyz            81.6      13.8       0.0       0.0       0.0       0.0
 2 Zn dx2y2           0.0       0.0       2.1       0.1       4.0      83.6
 2 Zn dxy             0.0       0.0      67.8       6.6       1.1       0.9
 3 Al s               0.0       0.0       0.2       0.6       0.1       0.3
 3 Al pz              0.0       0.3       0.0       0.0       0.0       0.0
 3 Al px              0.0       0.0       0.3       0.6       0.1       1.5
 3 Al py              0.0       0.0       0.1       0.4       1.0       0.1
 3 Al dz2             0.0       0.0       0.0       1.3       0.2       0.4
 3 Al dxz             0.2       1.2       0.0       0.0       0.0       0.0
 3 Al dx2y2           0.0       0.0       0.1       0.0       2.3       3.2
 3 Al dxy             0.0       0.0       1.8       0.0       0.1       0.0

                     84        85        86        87        88        89   
                   6.39891   6.39914   6.40131   6.40184   6.40215   6.40233
                   0.00000   0.00000   0.00000   0.00000   0.00000   0.00000
                  --------  --------  --------  --------  --------  --------
 1 Zn f0              0.0       0.0       0.0       0.1      25.8       0.0
 1 Zn f+1             0.0       0.0       1.7       0.3       0.0       0.0
 1 Zn f-1             0.1       0.0       0.6       1.0       0.2       0.0
 1 Zn f+2             0.0       0.0       0.0       0.2      66.8       0.1
 1 Zn f-2             0.0       0.0       0.0       0.0       6.3       0.1
 1 Zn f+3             0.0       0.2      96.5       0.8       0.0       0.0
 1 Zn f-3             0.3       0.1       0.8      96.8       0.3       0.0
 2 Zn f0              0.0       0.0       0.0       0.0       0.0       1.0
 2 Zn f+1             0.8       0.1       0.0       0.3       0.0       0.0
 2 Zn f-1             0.1       0.2       0.0       0.0       0.0       0.0
 2 Zn f+2             0.0       0.0       0.0       0.0       0.2      85.8
 2 Zn f-2             0.0       0.0       0.0       0.0       0.4      12.9
 2 Zn f+3            88.7       9.8       0.0       0.4       0.0       0.0
 2 Zn f-3             9.9      89.5       0.3       0.1       0.0       0.0

                     90        91        92        93        94        95   
                   6.40247   6.40258   6.40307   6.40388   6.40390   6.40495
                   0.00000   0.00000   0.00000   0.00000   0.00000   0.00000
                  --------  --------  --------  --------  --------  --------
 1 Zn f0              0.1       0.2       0.1      71.8       1.9       0.0
 1 Zn f+1             0.0       0.0       2.3       2.5      93.2       0.0
 1 Zn f-1             0.0       0.1      95.5       0.1       2.3       0.0
 1 Zn f+2             0.4       7.1       0.1      24.6       0.6       0.0
 1 Zn f-2             0.0      92.4       0.0       0.9       0.2       0.0
 1 Zn f+3             0.0       0.0       0.7       0.0       1.5       0.0
 1 Zn f-3             0.0       0.0       1.1       0.0       0.3       0.0
 2 Zn f0              0.5       0.0       0.0       0.0       0.0       0.0
 2 Zn f+1             0.0       0.0       0.1       0.0       0.0      11.8
 2 Zn f-1             0.0       0.0       0.0       0.0       0.0      87.5
 2 Zn f+2            13.3       0.2       0.0       0.0       0.0       0.1
 2 Zn f-2            85.6       0.0       0.0       0.0       0.0       0.0
 2 Zn f+3             0.0       0.0       0.1       0.0       0.0       0.3
 2 Zn f-3             0.0       0.0       0.0       0.0       0.0       0.3

                     96        97   
                   6.40545   6.40558
                   0.00000   0.00000
                  --------  --------
 1 Zn f-1             0.0       0.1
 1 Zn f-3             0.0       0.1
 2 Zn f0             90.1       8.4
 2 Zn f+1             7.5      79.3
 2 Zn f-1             1.1      11.0
 2 Zn f+2             0.4       0.1
 2 Zn f-2             0.9       0.1
 2 Zn f+3             0.1       0.8


                      *****************************
                      * MAYER POPULATION ANALYSIS *
                      *****************************

  NA   - Mulliken gross atomic population
  ZA   - Total nuclear charge
  QA   - Mulliken gross atomic charge
  VA   - Mayer's total valence
  BVA  - Mayer's bonded valence
  FA   - Mayer's free valence

  ATOM       NA         ZA         QA         VA         BVA        FA
  0 Al    13.0187    13.0000    -0.0187     1.7146     1.7146    -0.0000
  1 Zn    29.8507    30.0000     0.1493     0.8110     0.8110     0.0000
  2 Zn    29.9028    30.0000     0.0972     1.6080     1.6080    -0.0000
  3 Al    13.2279    13.0000    -0.2279     2.2643     2.2643    -0.0000

  Mayer bond orders larger than 0.100000
B(  0-Al,  1-Zn) :   0.1129 B(  0-Al,  2-Zn) :   0.7263 B(  0-Al,  3-Al) :   0.8754 
B(  1-Zn,  3-Al) :   0.6026 B(  2-Zn,  3-Al) :   0.7863 


------------------
HIRSHFELD ANALYSIS
------------------

Total integrated alpha density =     43.000008164
Total integrated beta density  =     43.000008164

  ATOM     CHARGE      SPIN    
   0 Al   0.015726    0.000000
   1 Zn   0.118193    0.000000
   2 Zn   0.001199    0.000000
   3 Al  -0.135134    0.000000

  TOTAL  -0.000016    0.000000


------------------
MBIS ANALYSIS
------------------

Convergence threshold (charges)      ...        1.000e-06
Number of iterations                 ...        91

Total integrated alpha density       ...     43.000008164
Total integrated beta density        ...     43.000008164

  ATOM     CHARGE    POPULATION     SPIN    
   0 Al   0.042159   12.957841    0.000000
   1 Zn   0.208196   29.791804    0.000000
   2 Zn   0.024186   29.975814    0.000000
   3 Al  -0.274557   13.274557    0.000000

  TOTAL  -0.000016   86.000016    0.000000

 MBIS VALENCE-SHELL DATA:
  ATOM   POPULATION   WIDTH(A.U.)
   0 Al   3.529570    0.843161
   1 Zn   3.209659    0.687380
   2 Zn   3.415576    0.727487
   3 Al   3.836616    0.888599

-------------------------
CHELPG CHARGES GENERATION
-------------------------
Number of atoms                    ...            4
Number of "pure atoms"             ...            4
Grid spacing                       ...     0.300000
Point Cut-Off                      ...     2.800000
Van-der-Waals Radii                ...        COSMO
Total charge                       ...            0
Dipole moment constraint           ...        FALSE
Equivalent atom charge constraint  ...        FALSE

Grid generated                     ...      0.0 sec
Grid points                        ...         4140
Potential calculated               ...      0.0 sec
RespFile stored                    ...           ok
Charges calculated                 ...      0.0 sec

CHELPG Charges            
--------------------------------
  0   Al  :       0.038120
  1   Zn  :       0.176922
  2   Zn  :      -0.008191
  3   Al  :      -0.206852
--------------------------------
Total charge:     0.000000
--------------------------------

CHELPG charges calculated...

Timings:
Grid generation                 ...        0.000 sec (=   0.000 min)
Potential calculation           ...        0.019 sec (=   0.000 min)
Fit to the potential            ...        0.000 sec (=   0.000 min)
------------------------------------------------------------------------------

-------
TIMINGS
-------

Total SCF time: 0 days 0 hours 0 min 3 sec 

Total time                  ....       3.113 sec
Sum of individual times     ....       2.818 sec  ( 90.5%)

SCF preparation             ....       0.128 sec  (  4.1%)
Fock matrix formation       ....       1.481 sec  ( 47.6%)
  Startup                   ....       0.062 sec  (  4.2% of F)
  Split-RI-J                ....       0.311 sec  ( 21.0% of F)
  XC integration            ....       0.739 sec  ( 49.9% of F)
    XC Preparation          ....       0.000 sec  (  0.0% of XC)
    Basis function eval.    ....       0.049 sec  (  6.7% of XC)
    Density eval.           ....       0.018 sec  (  2.4% of XC)
    XC-Functional eval.     ....       0.020 sec  (  2.8% of XC)
    XC-Potential eval.      ....       0.029 sec  (  3.9% of XC)
Diagonalization             ....       0.000 sec  (  0.0%)
Density matrix formation    ....       0.169 sec  (  5.4%)
Total Energy calculation    ....       0.078 sec  (  2.5%)
Population analysis         ....       0.531 sec  ( 17.1%)
Orbital Transformation      ....       0.011 sec  (  0.4%)
Orbital Orthonormalization  ....       0.000 sec  (  0.0%)
DIIS solution               ....       0.014 sec  (  0.5%)
  MO trafo                  ....       0.000 sec  (  0.0 % of DIIS)
  Orb grad                  ....       0.000 sec  (  0.0 % of DIIS)
  Energy W gradient         ....       0.000 sec  (  0.0 % of DIIS)
  DIIS error                ....       0.001 sec  (  6.4 % of DIIS)
  DIIS work                 ....       0.010 sec  ( 68.6 % of DIIS)
  Form Q                    ....       0.000 sec  (  0.0 % of DIIS)
  Form QpQm                 ....       0.000 sec  (  0.0 % of DIIS)
  Exp/Cayley                ....       0.000 sec  (  0.0 % of DIIS)
  Orb update                ....       0.000 sec  (  0.0 % of DIIS)
  Wake-sleep                ....       0.004 sec  ( 24.8 % of DIIS)
SOSCF solution              ....       0.405 sec  ( 13.0%)
  MO trafo                  ....       0.082 sec  ( 20.3 % of SOSCF)
  Orb grad                  ....       0.022 sec  (  5.5 % of SOSCF)
[...]
           *              working on a common directory               *
           ************************************************************

------------------------------------------------------------------------------
                         ORCA PROPERTY INTEGRAL CALCULATIONS
------------------------------------------------------------------------------

GBWName                                   ... orca.gbw
Number of atoms                           ...      4
Number of basis functions                 ...     98
Max core memory                           ...   4000 MB

Dipole integrals                          ... YES
Quadrupole integrals                      ... YES
Linear momentum integrals                 ...  NO
Angular momentum integrals                ...  NO
Higher moments length integrals           ...  NO
Higher moments velocity integrals         ...  NO
Kinetic energy integrals                  ...  NO
GIAO right hand sides                     ...  NO
GIAO dipole derivative integrals          ...  NO
SOC integrals                             ...  NO
EPR diamagnetic integrals (GIAO)          ...  NO
EPR gauge integrals                       ...  NO
Field gradient integrals                  ...  NO (   0 nuclei)
Spin-dipole/Fermi contact integrals       ...  NO (   0 nuclei)
Contact density integrals                 ...  NO (   0 nuclei)
Nucleus-orbit integrals                   ...  NO (   0 nuclei)
Geometric perturbations                   ...  NO (   4 nuclei)

Choice of electric origin   ... Center of mass
Position of electric origin ... (  0.8533,  0.9973,  0.1278) 
Choice of magnetic origin   ... GIAO
Position of magnetic origin ... (  0.0000,  0.0000,  0.0000) 

Calculating integrals                     ... Electric Dipole (Length)     done (  0.0 sec)
Calculating integrals                     ... Electric Quadrupole (Length) done (  0.0 sec)

Property integrals calculated in   0.0 sec

Maximum memory used throughout the entire PROPINT-calculation: 8.3 MB


-------------------------------------------------------------------------------
                          DFT DISPERSION CORRECTION                            
                                                                               
                                DFTD4 V3.4.0                                   
-------------------------------------------------------------------------------
The PBE functional is recognized
Active option DFTDOPT                   ...         5   

-------------------------   ----------------
Dispersion correction           -0.006751602
-------------------------   ----------------


-------------------------   --------------------
FINAL SINGLE POINT ENERGY     -4042.077599338872
-------------------------   --------------------



           ************************************************************
           *        Program running with 8 parallel MPI-processes     *
           *              working on a common directory               *
           ************************************************************
------------------------------------------------------------------------------
                         ORCA SCF GRADIENT CALCULATION
------------------------------------------------------------------------------

Nuc. rep. gradient        (SHARK) ... done (  0.0 sec)
HCore & Overlap gradient  (SHARK) ... done (  0.0 sec)
Split-RIJ-J gradient      (SHARK) ... done (  0.1 sec)
XC gradient                       ... done (  0.0 sec)
Dispersion correction             ... done (  0.0 sec)

-------------------
DISPERSION GRADIENT
-------------------

   1   Al  :    0.000244422   -0.000340298    0.000001529
   2   Zn  :   -0.000221787   -0.001926717    0.000013554
   3   Zn  :    0.000130918   -0.000164113   -0.000000312
   4   Al  :   -0.000153553    0.002431129   -0.000014772

Difference to translation invariance:
           :   -0.0000000000   -0.0000000000    0.0000000000

Difference to rotation invariance:
           :    0.0000000000   -0.0000000000   -0.0000000000

Norm of the Dispersion gradient    ...    0.0031488751
RMS gradient                       ...    0.0009090019
MAX gradient                       ...    0.0024311285

------------------
CARTESIAN GRADIENT
------------------

   1   Al  :    0.007750098   -0.012849420    0.000044463
   2   Zn  :   -0.002312926    0.004577916   -0.000061014
   3   Zn  :    0.005399987    0.001046300   -0.000056802
   4   Al  :   -0.010837159    0.007225204    0.000073353

Difference to translation invariance:
           :   -0.0000000000    0.0000000002    0.0000000000

Difference to rotation invariance:
           :   -0.0000650183    0.0000626705   -0.0000618250

Norm of the Cartesian gradient     ...    0.0212460596
RMS gradient                       ...    0.0061332091
MAX gradient                       ...    0.0128494199

-------
TIMINGS
-------

Total SCF gradient time     ....        0.187 sec

Densities                   ....       0.000 sec  (  0.1%)
One electron gradient       ....       0.007 sec  (  3.8%)
RI-J Coulomb gradient       ....       0.127 sec  ( 68.1%)
XC gradient                 ....       0.032 sec  ( 17.0%)

Maximum memory used throughout the entire SCFGRAD-calculation: 26.6 MB


           ************************************************************
           *        Program running with 8 parallel MPI-processes     *
           *              working on a common directory               *
           ************************************************************
------------------------------------------------------------------------------
                            ORCA SCF RESPONSE CALCULATION
------------------------------------------------------------------------------

GBWName                                 ... orca.gbw
Number of atoms                         ...      4
Number of basis functions               ...     98
Max core memory                         ...   4000 MB

Electric field perturbation             ... YES
Quadrupolar field perturbation          ...  NO
Magnetic field perturbation (no GIAO)   ...  NO
Magnetic field perturbation (with GIAO) ...  NO
Linear momentum (velocity) perturbation ...  NO
Spin-orbit coupling perturbation        ...  NO
Choice of electric origin               ... Center of mass
Position of electric origin             ...     0.853275     0.997324     0.127814
Choice of magnetic origin               ... GIAO
Position of magnetic origin             ...     0.000000     0.000000     0.000000
Nuclear geometric perturbations         ...  NO (  12 perturbations)
Nucleus-orbit perturbations             ...  NO (   0 perturbations)
Spin-dipole/Fermi contact perturbations ...  NO (   0 perturbations)

Total number of real perturbations      ...      3
Total number of imaginary perturbations ...      0
Total number of triplet perturbations   ...      0
Total number of SOC perturbations       ...      0

Using XC Grid                  ... (orca.grid_cpscf.tmp) 
Recalculating density on grid  ... (orca.grho_cpscf0.tmp) done
Calculating the xc-kernel      ... (orca.fxc_cpscf0.tmp) done

                                **********************
                                * REAL PERTURBATIONS *
                                **********************



-------------------
SHARK CP-SCF DRIVER
-------------------

Dimension of the orbital basis          ...     98
Dimension of the CPSCF-problem          ...   2365
Number of operators                     ...      1
Max. number of iterations               ...    128
Convergence Tolerance                   ... 1.0e-04
Number of perturbations                 ...      3
Perturbation type                       ... REAL

----------------------------
POPLE LINEAR EQUATION SOLVER
----------------------------

  ITERATION   0:   ||err||_max =   3.8842e+06 (   0.1 sec   0/  3 done)
  ITERATION   1:   ||err||_max =   7.2759e+02 (   0.1 sec   0/  3 done)
  ITERATION   2:   ||err||_max =   1.8667e+01 (   0.1 sec   0/  3 done)
  ITERATION   3:   ||err||_max =   1.4467e+01 (   0.1 sec   0/  3 done)
  ITERATION   4:   ||err||_max =   1.1014e+01 (   0.1 sec   0/  3 done)
  ITERATION   5:   ||err||_max =   3.0416e+00 (   0.1 sec   0/  3 done)
  ITERATION   6:   ||err||_max =   5.2476e-01 (   0.1 sec   0/  3 done)
  ITERATION   7:   ||err||_max =   1.7058e-01 (   0.1 sec   0/  3 done)
  ITERATION   8:   ||err||_max =   4.1028e-02 (   0.1 sec   0/  3 done)
  ITERATION   9:   ||err||_max =   7.9730e-03 (   0.1 sec   0/  3 done)
  ITERATION  10:   ||err||_max =   2.4811e-03 (   0.1 sec   0/  3 done)
  ITERATION  11:   ||err||_max =   8.3462e-04 (   0.1 sec   0/  3 done)
  ITERATION  12:   ||err||_max =   1.4736e-04 (   0.1 sec   1/  3 done)
  ITERATION  13:   ||err||_max =   2.5361e-05 (   0.1 sec   3/  3 done)

CP-SCF equations solved in   1.1 sec
Response densities calculated in   0.0 sec

Maximum memory used throughout the entire SCFRESP-calculation: 7.2 MB


           ************************************************************
           *        Program running with 8 parallel MPI-processes     *
           *              working on a common directory               *
           ************************************************************

------------------------------------------------------------------------------
                              ORCA PROPERTY CALCULATIONS
------------------------------------------------------------------------------

GBWName                                 ... orca.gbw
Number of atoms                         ...      4
Number of basis functions               ...     98
Max core memory                         ...   4000 MB

Electric properties:
Dipole moment                           ... YES
Quadrupole moment                       ... YES
Static polarizability (Dipole/Dipole)   ... YES
Static polarizability (Dipole/Quad.)    ...  NO
Static polarizability (Quad./Quad.)     ...  NO
Static polarizability (Velocity)        ...  NO
Static hyperpolarizability              ...  NO

Atomic electric properties:
Dipole moment                           ...  NO
Quadrupole moment                       ...  NO
Static polarizability                   ...  NO

Choice of electric origin               ... Center of mass
Position of electric origin             ...     0.853275     0.997324     0.127814

General magnetic properties:
Magnetizability                         ...  NO

EPR properties:
g-Tensor (aka g-matrix)                 ...  NO
Zero-Field splitting spin-orbit         ...  NO
Zero-field splitting spin-spin          ...  NO
Hyperfine couplings                     ...  NO (   0 nuclei)
Quadrupole couplings                    ...  NO (   0 nuclei)
Contact density                         ...  NO (   0 nuclei)

NMR properties:
Chemical shifts                         ...  NO (   0 nuclei)
Spin-rotation constants                 ...  NO (   0 nuclei)
Spin-spin couplings                     ...  NO (   0 nuclei,    0 pairs)

Choice of magnetic origin               ... GIAO
Position of magnetic origin             ...     0.000000     0.000000     0.000000

Properties with geometric perturbations:
SCF Hessian                             ...  NO
IR spectrum                             ...  NO
VCD spectrum                            ...  NO
X-ray spectroscopy properties:
SCF XES/XAS/RIXS spectra                ...  NO

SCF SOC stabilization energy            ...  NO
Diagonal Born-Oppenheimer correction    ...  NO

-------------
DIPOLE MOMENT
-------------

Method             : SCF
Type of density    : Electron Density
Multiplicity       :   1
Irrep              :   0
Energy             : -4042.0708477370449145 Eh
Basis              : AO
                                X                 Y                 Z
Electronic contribution:      0.377827975       5.267108994      -0.044355959
Nuclear contribution   :     -0.076398753      -4.346403656       0.042064118
                        -----------------------------------------
Total Dipole Moment    :      0.301429222       0.920705338      -0.002291842
                        -----------------------------------------
Magnitude (a.u.)       :      0.968794688
Magnitude (Debye)      :      2.462480400



--------------------
Rotational spectrum 
--------------------
 
Rotational constants in cm-1:             0.178233             0.020218             0.018159 
Rotational constants in MHz :          5343.301488           606.129948           544.380897 

Dipole components along the rotational axes: 
x,y,z [a.u.] :     0.636804     0.730032     0.009847 
x,y,z [Debye]:     1.618626     1.855595     0.025029 

 

Dipole moment calculation done in   0.0 sec 

-----------------
QUADRUPOLE MOMENT
-----------------

Method             : SCF
Type of density    : Electron Density
Multiplicity       :   1
Irrep              :   0
Energy             : -4042.0708477370449145 Eh
Basis              : AO

                XX              YY              ZZ              XY              XZ              YZ
  NUC      478.827503645  1072.877720012     0.046930550  -539.834728577    -0.345705024    -3.993670065
  EL      -517.035241536 -1109.711909459   -47.469218222   536.465379816     0.339251742     3.896135950
  TOT      -38.207737890   -36.834189446   -47.422287672    -3.369348761    -0.006453282    -0.097534115 (a.u.)
           -51.390714167   -49.543244535   -63.784598761    -4.531889315    -0.008679885    -0.131186720 (Buckingham)

diagonalized tensor:
           -47.423358601   -40.958904606   -34.081951801 (a.u.)
           -63.786039197   -55.091127490   -45.841390775 (Buckingham)
           -26.639560130    -0.554825008    27.194385138 (traceless form in Buckingham)

             0.004603033     0.774533940    -0.632515603
             0.010674751     0.632448205     0.774529094
             0.999932429    -0.010317130    -0.005356777
        
Isotropic quadrupole :   -40.821405003

Quadrupole moment calculation done in   0.0 sec (  0.0 sec for integrals)


---------------------------------------------------
STATIC POLARIZABILITY TENSOR (Dipole/Dipole)
---------------------------------------------------

Method             : SCF
Type of density    : Electron Density
Type of derivative : Electric Field (Direction=X)
Multiplicity       :   1
Irrep              :   0
Basis              : AO

The raw cartesian tensor (atomic units):
     193.334707095       -90.539929837        -0.422377205  
     -90.539929837       319.548894892        -1.698762555  
      -0.422377205        -1.698762555       116.759421800  
diagonalized tensor: 
     116.706705632       146.124682659       366.811635495  

Orientation: 
       0.032574820         0.885931368        -0.462671041  
       0.022908138         0.462133291         0.886514545  
       0.999206734        -0.039476984        -0.005241129  

Isotropic polarizability : 209.88101


Polarizability tensor calculation done in   0.0 sec 

Maximum memory used throughout the entire PROP-calculation: 4.8 MB

--------------------------------
SUGGESTED CITATIONS FOR THIS RUN
--------------------------------

Below you find a list of papers that are relevant to this ORCA run
We neither can nor want to force you to cite these papers, but we appreciate if you do
You receive ORCA, which is the product of decades of hard work by many enthusiastic individuals, for free
The only thing we kindly ask in return is that you cite our papers,
We deeply appreciate it, if you show your appreciation for ORCA by not just citing the generic ORCA reference.

Please note that relegating all ORCA citations to the supporting information does *not* help us.
SI sections are not indexed - citations you put there will not count into any citation statistics
But we need these citations in order to attract the funding resources that allow us to do what we are doing

Therefore, if you are a happy ORCA user, please consider citing a few of the papers listed below in the main body of your paper

In addition to the list printed below, the program has created the file orca.bibtex that contains the list in bibtex format
You can import this file easily into all common literature databanks and citation aid programs


List of essential papers. We consider these as the minimum necessary citations

  1. Neese, F.
     Software update: the ORCA program system, version 6.0
     WIRES Comput. Molec. Sci. 2025 15(1), e70019
     doi.org/10.1002/wcms.7019

List of papers to cite with high priority. The work reported in these papers was absolutely
necessary for this run to complete.
Our perspective: the developers of density functionals and basis sets usually get cited in chemistry papers
Good! But without the algorithms to do something with them, the functionals or basis sets would not do anything.
Hence, in our opinion, the algorithm design and method developments papers are equally worthy of getting cited

  1. Neese, F.
     An improvement of the resolution of the identity approximation for the formation of the Coulomb matrix
     J. Comp. Chem. 2003 24(14), 1740-1747
     doi.org/10.1002/jcc.10318
  2. Caldeweyher, E.; Bannwarth, C.; Grimme, S.
     Extension of the D3 dispersion coefficient model
     J. Chem. Phys. 2017 147 , 034112
     doi.org/10.1063/1.4993215
  3. Caldeweyher, E.; Ehlert, S.; Hansen, A.; Neugebauer, H.; Spicher, S.; Bannwarth, C.; Grimme, S.
     A generally applicable atomic-charge dependent London dispersion correction
     J. Chem. Phys. 2019 150 , 154122
     doi.org/10.1063/1.5090222
  4. Caldeweyher, E.; Mewes, J.; Ehlert, S.; Grimme, S.
     Extension and evaluation of the D4 London-dispersion model for periodic systems
     Phys. Chem. Chem. Phys. 2020 22(16), 8499-8512
     doi.org/10.1039/D0CP00502A
  5. Neese, F.
     The SHARK Integral Generation and Digestion System
     J. Comp. Chem. 2022 44(3), 381
     doi.org/10.1002/jcc.26942
  6. Wittmann, L.; Gordiy, I.; Friede, M.; Helmich-Paris, B.; Grimme, S.; Hansen, A.; Bursch, M.
     Extension of the D3 and D4 London Dispersion Corrections to the full Actinides Series
     Phys. Chem. Chem. Phys. 2024 26(32), 21379-21394
     doi.org/10.1039/D4CP01514B

List of suggested additional citations. These are papers that are important in the 'surrounding' of 
of this run, or papers that preceded the highly important papers. If you like your results we are grateful for a citation.

  1. Neese, F.
     The ORCA program system
     WIRES Comput. Molec. Sci. 2012 2(1), 73-78
     doi.org/10.1002/wcms.81
  2. Neese, F.
     Software update: the ORCA program system, version 4.0
     WIRES Comput. Molec. Sci. 2018 8(1), 1-6
     doi.org/10.1002/wcms.1327
  3. Neese, F.; Wennmohs, F.; Becker, U.; Riplinger, C.
     The ORCA quantum chemistry program package
     J. Chem. Phys. 2020 152(22), 224108
     doi.org/10.1063/5.0004608
  4. Neese, F.
     Software update: The ORCA program system—Version 5.0
     WIRES Comput. Molec. Sci. 2022 12(1), e1606
     doi.org/10.1002/wcms.1606

List of optional additional citations

  1. Neese, F.
     Approximate second-order SCF convergence for spin unrestricted wavefunctions
     Chem. Phys. Lett. 2000 325(1-3), 93-98
     doi.org/10.1016/s0009-2614(00)00662-x

Timings for individual modules:

Sum of individual times          ...        6.959 sec (=   0.116 min)
Startup calculation              ...        0.552 sec (=   0.009 min)   7.9 %
SCF iterations                   ...        3.776 sec (=   0.063 min)  54.3 %
Property integrals               ...        0.295 sec (=   0.005 min)   4.2 %
SCF Response                     ...        1.549 sec (=   0.026 min)  22.3 %
Property calculations            ...        0.318 sec (=   0.005 min)   4.6 %
SCF Gradient evaluation          ...        0.468 sec (=   0.008 min)   6.7 %
                             ****ORCA TERMINATED NORMALLY****
TOTAL RUN TIME: 0 days 0 hours 0 minutes 7 seconds 565 msec
