4
Properties=species:S:1:pos:R:3:momenta:R:3:forces:R:3 charge=0 spin=0 energy=-109990.53389605768 free_energy=-109990.53389605768 dipole="0.15950947488038883 0.4872162825140785 -0.001212790556613055" pbc="F F F"
Al       1.65191421      -2.72050620       0.09107000       0.00000000       0.00000000       0.00000000      -0.39852605       0.66074373      -0.00228637
Zn      -0.79009796       2.73874850       0.06354460      -0.00000000      -0.00000000       0.00000000       0.11893545      -0.23540592       0.00313748
Zn       1.72011291      -0.15014662       0.05689118       0.00000000       0.00000000      -0.00000000      -0.27767850      -0.05380290       0.00292088
Al      -0.81414371       0.06122667       0.08015433      -0.00000000       0.00000000       0.00000000       0.55726910      -0.37153492      -0.00377198
