
                                 *****************
                                 * O   R   C   A *
                                 *****************

                                            #,                                       
                                            ###                                      
                                            ####                                     
                                            #####                                    
                                            ######                                   
                                           ########,                                 
                                     ,,################,,,,,                         
                               ,,#################################,,                 
                          ,,##########################################,,             
                       ,#########################################, ''#####,          
                    ,#############################################,,   '####,        
                  ,##################################################,,,,####,       
                ,###########''''           ''''###############################       
              ,#####''   ,,,,##########,,,,          '''####'''          '####       
            ,##' ,,,,###########################,,,                        '##       
           ' ,,###''''                  '''############,,,                           
         ,,##''                                '''############,,,,        ,,,,,,###''
      ,#''                                            '''#######################'''  
     '                                                          ''''####''''         
             ,#######,   #######,   ,#######,      ##                                
            ,#'     '#,  ##    ##  ,#'     '#,    #''#        ,####,    ,#,          
            ##       ##  ##   ,#'  ##            #'  '#       #'       ,# #          
            ##       ##  #######   ##           ,######,      #####,      #          
            '#,     ,#'  ##    ##  '#,     ,#' ,#      #,     #,   #      #          
             '#######'   ##     ##  '#######'  #'      '#     '####' #    #          



                #########################################################
                #                        -***-                          #
                #          Department of theory and spectroscopy        #
                #                                                       #
                #                      Frank Neese                      #
                #                                                       #
                #     Directorship, Architecture, Infrastructure        #
                #                    SHARK, DRIVERS                     #
                #        Core code/Algorithms in most modules           #
                #                                                       #
                #        Max Planck Institute fuer Kohlenforschung      #
                #                Kaiser Wilhelm Platz 1                 #
                #                 D-45470 Muelheim/Ruhr                 #
                #                      Germany                          #
                #                                                       #
                #                  All rights reserved                  #
                #                        -***-                          #
                #########################################################


                         Program Version 6.1.0  -  RELEASE   -
                                (GIT: $679e74b$)
                          ($2025-06-10 18:02:51 +0200$)


 With contributions from (in alphabetic order):
[Max-Planck-Institut fuer Kohlenforschung]                               
  Daniel Aravena         : Magnetic Suceptibility                        
  Michael Atanasov       : Ab Initio Ligand Field Theory (pilot matlab implementation)
  Alexander A. Auer      : GIAO ZORA, VPT2 properties, NMR spectrum      
  Ute Becker             : All parallelization in ORCA, NUMFREQ, NUMCALC 
  Giovanni Bistoni       : ED, misc. LED, open-shell LED, HFLD           
  Dmytro Bykov           : pre 5.0 version of the SCF Hessian            
  Marcos Casanova-Páez   : Triplet and SCS-CIS(D). UHF-(DLPNO)-IP/EA/STEOM-CCSD. UHF-CVS-IP/STEOM-CCSD   
  Vijay G. Chilkuri      : MRCI spin determinant printing, contributions to CSF-ICE 
  Pauline Colinet        : FMM embedding                                 
  Dipayan Datta          : RHF DLPNO-CCSD density                        
  Achintya Kumar Dutta   : EOM-CC, STEOM-CC                              
  Nicolas Foglia         : Exact transition moments, OPA infrastructure, MCD improvements    
  Dmitry Ganyushin       : Spin-Orbit,Spin-Spin,Magnetic field MRCI      
  Miquel Garcia-Rates    : C-PCM and meta-GGA Hessian, CCSD/C-PCM, Gaussian charge scheme 
  Tiago L. C. Gouveia    : GS-ROHF, GS-ROCIS                             
  Yang Guo               : DLPNO-NEVPT2, F12-NEVPT2, CIM, IAO-localization        
  Andreas Hansen         : Spin unrestricted coupled pair/coupled cluster methods 
  Ingolf Harden          : AUTO-CI MPn and infrastructure                
  Benjamin Helmich-Paris : MC-RPA, TRAH-(SCF,CASSCF), AVAS, COSX integrals, SCF dyn. polar., MC-PDFT, srDFT 
  Lee Huntington         : MR-EOM, pCC                                   
  Robert Izsak           : Overlap fitted RIJCOSX, COSX-SCS-MP3, EOM     
  Riya Kayal             : Wick's Theorem for AUTO-CI, AUTO-CI UHF-CCSDT 
  Emily Kempfer          : AUTO-CI RHF CISDT and CCSDT, approximate NEVPT4
  Christian Kollmar      : KDIIS, OOCD, Brueckner-CCSD(T), CCSD density, CASPT2, CASPT2-K, improved NEVPT2 
  Axel Koslowski         : Symmetry handling                             
  Simone Kossmann        : meta-GGA functionals, TD-DFT gradient, OOMP2, (MP2 Hessian; deprecated post 5.0) 
  Lucas Lang             : DCDCAS, Hyperfine gauge corrections, ICE-SOC+SSC
  Marvin Lechner         : AUTO-CI (C++ implementation), FIC-MRCC        
  Spencer Leger          : CASSCF response                               
  Dagmar Lenk            : GEPOL surface, SMD, ORCA-2-JSON               
  Dimitrios Liakos       : Extrapolation schemes; Compound Job, Property file
  Dimitrios Manganas     : Further ROCIS development; embedding schemes. LFT, Crystal Embedding 
  Dimitrios Pantazis     : SARC Basis sets                               
  Anastasios Papadopoulos: AUTO-CI, single reference methods and gradients 
  Taras Petrenko         : pre 6.0 DFT Hessian and TD-DFT gradient,  ECA, NRVS 
  Petra Pikulova         : Analytic Raman intensities                    
  Peter Pinski           : DLPNO-MP2, DLPNO-MP2 Gradient                 
  Shashank Vittal Rao    : ES-AILFT, MagRelax                            
  Christoph Reimann      : Effective Core Potentials                     
  Marius Retegan         : Local ZFS, SOC                                
  Christoph Riplinger    : Optimizer, TS searches, QM/MM, DLPNO-CCSD(T), (RO)-DLPNO pert. Triples 
  Michael Roemelt        : Original ROCIS implementation, recursive CI coupling coefficients
  Masaaki Saitow         : Open-shell DLPNO-CCSD energy and density      
  Barbara Sandhoefer     : DKH picture change effects                    
  Yorick L. A. Schmerwitz: GMF and freeze-and-release deltaSCF, NEB S-IDPP initial path                    
  Kantharuban Sivalingam : CASSCF convergence/infrastructure, NEVPT2, NEVPT3, NEVPT4(SD), FIC-MRCI and CEPA variants
  Bernardo de Souza      : ESD, SOC TD-DFT                               
  Georgi L. Stoychev     : AutoAux, RI-MP2 NMR, DLPNO-MP2 response, X2C  
  Van Anh Tran           : RI-MP2 g-tensors                              
  Willem Van den Heuvel  : Paramagnetic NMR                              
  Zikuan Wang            : NOTCH, Electric field optimization            
  Frank Wennmohs         : Technical directorship and infrastructure     
  Hang Xu                : AUTO-CI-Response properties                   
                                                                         
[FACCTs GmbH]                                                            
  Markus Bursch, Nicolas Foglia, Miquel Garcia-Rates, Ingolf Harden, Hagen Neugebauer, Anastasios Papadopoulos, 
  Christoph Riplinger, Bernardo de Souza, Georgi L. Stoychev                                                    
                                                                 
  APM, various basis sets, CI-OPT, improved COSX, DLPNO-Multilevel,           
  DOCKER, DRACO, updates on ESD, Fragmentator, GOAT, IRC, LR-CPCM, L-BFGS, MBIS, meta-GGA TD-DFT gradient, ML-optimized integration grids, 
  MM, NACMEs, nearIR, NEB, NEB-TS, NL-DFT gradient (VV10), 2- and 3-layer-ONIOM, interface openCOSMO-RS, QMMM,   
  Crystal-QMMM, RESP, rigid body optimization, SF, symmetry and pop. for TD-DFT, various functionals, SOLVATOR                                   
                                                                         
[Other institutions]                                                     
  V. Asgeirsson          : NEB                                           
  Christoph Bannwarth    : sTDA-DFT, sTD-DFT, PBEh-3c, B97-3c, D3        
  Giovanni Bistoni       : ETS/NOCV, ADLD/ADEX, COVALED                  
  Martin Brehm           : Molecular dynamics                            
  Ronald Cardenas        : ETS/NOCV                                      
  Martina Colucci        : COVALED                                       
  Sebastian Ehlert       : rSCAN, r2SCAN, r2SCAN-3c, D4, dhf basis sets  
  Marvin Friede          : D4 for Fr, Ra, Ac-Lr                          
  Lars Goerigk           : TD-DFT with DH, B97 family of functionals     
  Stefan Grimme          : VdW corrections, initial TS optimization, DFT functionals, gCP, sTDA/sTD-DF 
  Waldemar Hujo          : DFT-NL                                        
  H. Jonsson             : NEB                                           
  Holger Kruse           : gCP                                           
  Marcel Mueller         : wB97X-3c, vDZP basis set                      
  Hagen Neugebauer       : wr2SCAN, Native XTB                           
  Gianluca Regni         : ADLD/ADEX                                     
  Tobias Risthaus        : pre 6.0 range-separated hybrid DFT and stability analysis
  Lukas Wittmann         : regularized MP2, r2SCAN double-hybrids, wr2SCAN        
                                                                         
We gratefully acknowledge several colleagues who have allowed us to      
interface, adapt or use parts of their codes:                            
  Ed Valeev, F. Pavosevic, A. Kumar             : LibInt (2-el integral package), F12 methods 
  Garnet Chan, S. Sharma, J. Yang, R. Olivares  : DMRG                   
  Ulf Ekstrom                                   : XCFun DFT Library      
  Mihaly Kallay                                 : mrcc  (arbitrary order and MRCC methods)
  Frank Weinhold                                : gennbo (NPA and NBO analysis)           
  Simon Mueller                                 : openCOSMO-RS                            
  Christopher J. Cramer and Donald G. Truhlar   : smd solvation model                     
  S Lehtola, MJT Oliveira, MAL Marques          : LibXC Library                           
  Liviu Ungur et al                             : ANISO software                          


 Your calculation uses the libint2 library for the computation of 2-el integrals
 For citations please refer to: http://libint.valeyev.net

 Your ORCA version has been built with support for libXC version: 7.0.0
 For citations please refer to: https://libxc.gitlab.io

 This ORCA versions uses:
   CBLAS   interface :  Fast vector & matrix operations
   LAPACKE interface :  Fast linear algebra routines
   SCALAPACK package :  Parallel linear algebra routines
   Shared memory     :  Shared parallel matrices
   BLAS/LAPACK       :  OpenBLAS 0.3.29  USE64BITINT DYNAMIC_ARCH NO_AFFINITY Cooperlake SINGLE_THREADED
        Core in use  :  Cooperlake
   Copyright (c) 2011-2014, The OpenBLAS Project


  ***********************************
  * Starting time: Tue Oct 14 04:55:47 2025
  * Host name:     zhoulab-2
  * Process ID:    1403601
  * Working dir.:  /data/home/grads/jianpengc/projects/materials/R_MetaSymbO/_mdopt/orca_sp
  ***********************************

NOTE: MaxCore=4000 MB was set to SCF,MP2,MDCI,CIPSI,MRCI,RASCI and CIS
      => If you want to overwrite this, your respective input block should be placed after the MaxCore statement
Your calculation utilizes the atom-pairwise dispersion correction
based on EEQ partial charges (D4)


================================================================================

----- Orbital basis set information -----
Your calculation utilizes the basis: def2-SVP
   F. Weigend and R. Ahlrichs, Phys. Chem. Chem. Phys. 7, 3297 (2005).

----- AuxJ basis set information -----
Your calculation utilizes the auxiliary basis: def2/J
   H-Rn: F. Weigend, Phys. Chem. Chem. Phys. 8, 1057 (2006).
   Fr-Lr: K. Eichkorn, F. Weigend, O. Treutler, R. Ahlrichs; Theor. Chem. Acc. 97, 119 (1997).

================================================================================
                                        WARNINGS
                       Please study these warnings very carefully!
================================================================================



WARNING: Found flag for RIJCOSX approximation but no HF exchange needed!
  ===> : RIJCOSX  will be disabled and Split-RI-J is turned on

================================================================================
                                       INPUT FILE
================================================================================
NAME = orca.inp
|  1> ! UKS PBE def2-SVP def2/J RIJCOSX TightSCF D4 EnGrad CHELPG 
|  2> %maxcore 4000
|  3> 
|  4> %pal
|  5>   nprocs 8
|  6> end
|  7> 
|  8> %scf
|  9>   MaxIter 50
| 10>   DIISStart 3
| 11>   SOSCFStart 8
| 12>   # 金属体系有时加点电子温度有利于收敛（单位 K）
| 13> end
| 14> 
| 15> %output
| 16>   PrintLevel Normal
| 17>   Print[ P_OrbEn ] 2
| 18>   Print[ P_Mulliken ] 1
| 19>   Print[ P_Loewdin ] 1
| 20>   Print[ P_Mayer ] 1
| 21>   Print[ P_Hirshfeld ] 1
| 22>   Print[ P_MBIS ] 1
| 23> end
| 24> 
| 25> %elprop
| 26>   Dipole true
| 27>   Quadrupole true
| 28>   Polar true
| 29> end
| 30>  
| 31> *xyz 0 2 
| 32> Al   -4.107953042447189 -9.671723267083317 13.497291199449165
| 33> Zn   1.9545903191732021 4.264080715455842 -5.025658239496606
| 34> *
| 35> 
| 36>                          ****END OF INPUT****
================================================================================

                     *******************************
                     * Energy+Gradient Calculation *
                     *******************************

---------------------------------
CARTESIAN COORDINATES (ANGSTROEM)
---------------------------------
  Al    -4.107953   -9.671723   13.497291
  Zn     1.954590    4.264081   -5.025658

----------------------------
CARTESIAN COORDINATES (A.U.)
----------------------------
  NO LB      ZA    FRAG     MASS         X           Y           Z
   0 Al   13.0000    0    26.982   -7.762906  -18.276908   25.506184
   1 Zn   30.0000    0    65.380    3.693640    8.057945   -9.497118

--------------------------------
INTERNAL COORDINATES (ANGSTROEM)
--------------------------------
 Al     0   0   0     0.000000000000     0.00000000     0.00000000
 Zn     1   0   0    23.959564281702     0.00000000     0.00000000

---------------------------
INTERNAL COORDINATES (A.U.)
---------------------------
 Al     0   0   0     0.000000000000     0.00000000     0.00000000
 Zn     1   0   0    45.277014780499     0.00000000     0.00000000

---------------------
BASIS SET INFORMATION
---------------------
There are 2 groups of distinct atoms

 Group   1 Type Al  : 10s7p1d contracted to 4s3p1d pattern {5311/511/1}
 Group   2 Type Zn  : 14s9p5d1f contracted to 5s3p2d1f pattern {63311/531/41/1}

Atom   0Al   basis set group =>   1
Atom   1Zn   basis set group =>   2
---------------------------------
AUXILIARY/J BASIS SET INFORMATION
---------------------------------
There are 2 groups of distinct atoms

 Group   1 Type Al  : 14s5p5d2f1g contracted to 8s4p3d1f1g pattern {71111111/2111/311/2/1}
 Group   2 Type Zn  : 19s5p5d3f3g contracted to 8s5p5d2f3g pattern {121111111/11111/11111/21/111}

Atom   0Al   basis set group =>   1
Atom   1Zn   basis set group =>   2

Checking for AutoStart:
The File: orca.gbw exists
Trying to determine its content:
     ... Fine, the file contains calculation information
     ... Fine, the calculation information was read
     ... Fine, the file contains a basis set
     ... Fine, the basis set was read
     ... Fine, the file contains a geometry
     ... Fine, the geometry was read
     ... The file does not contain orbitals - skipping AutoStart


           ************************************************************
           *        Program running with 8 parallel MPI-processes     *
           *              working on a common directory               *
           ************************************************************
------------------------------------------------------------------------------
                             ORCA STARTUP CALCULATIONS
                           -- RI-GTO INTEGRALS CHOSEN --
------------------------------------------------------------------------------
------------------------------------------------------------------------------
                   ___                                                        
                  /   \      - P O W E R E D   B Y -                         
                 /     \                                                     
                 |  |  |   _    _      __       _____    __    __             
                 |  |  |  | |  | |    /  \     |  _  \  |  |  /  |          
                  \  \/   | |  | |   /    \    | | | |  |  | /  /          
                 / \  \   | |__| |  /  /\  \   | |_| |  |  |/  /          
                |  |  |   |  __  | /  /__\  \  |    /   |      \           
                |  |  |   | |  | | |   __   |  |    \   |  |\   \          
                \     /   | |  | | |  |  |  |  | |\  \  |  | \   \       
                 \___/    |_|  |_| |__|  |__|  |_| \__\ |__|  \__/        
                                                                              
                      - O R C A' S   B I G   F R I E N D -                    
                                      &                                       
                       - I N T E G R A L  F E E D E R -                       
                                                                              
 v1 FN, 2020, v2 2021, v3 2022-2024                                           
------------------------------------------------------------------------------


----------------------
SHARK INTEGRAL PACKAGE
----------------------

Number of atoms                             ...      2
Number of basis functions                   ...     49
Number of shells                            ...     19
Maximum angular momentum                    ...      3
Integral batch strategy                     ... SHARK/LIBINT Hybrid
RI-J (if used) integral strategy            ... SPLIT-RIJ (Revised 2003 algorithm where possible)
Printlevel                                  ...      1
Contraction scheme used                     ... SEGMENTED contraction
Prescreening option                         ... SCHWARTZ
   Thresh                                   ... 2.500e-11
   Tcut                                     ... 2.500e-12
   Tpresel                                  ... 2.500e-12 
Coulomb Range Separation                    ... NOT USED
Exchange Range Separation                   ... NOT USED
Multipole approximations                    ... NOT USED
Finite Nucleus Model                        ... NOT USED
CABS basis                                  ... NOT available
Auxiliary Coulomb fitting basis             ... AVAILABLE
   # of basis functions in Aux-J            ...    140
   # of shells in Aux-J                     ...     40
   Maximum angular momentum in Aux-J        ...      4
Auxiliary J/K fitting basis                 ... NOT available
Auxiliary Correlation fitting basis         ... NOT available
Auxiliary 'external' fitting basis          ... NOT available

Checking pre-screening integrals            ... done (  0.0 sec) Dimension = 19
   => SHARK Basis and OBASIS are compatible. Storing Pre-screening
Shell pair information
Shell pair cut-off parameter TPreSel        ...   2.5e-12
Total number of shell pairs                 ...       190
Shell pairs after pre-screening             ...       102
Total number of primitive shell pairs       ...      1191
Primitive shell pairs kept                  ...       669
          la=0 lb=0:     25 shell pairs
          la=1 lb=0:     27 shell pairs
          la=1 lb=1:     12 shell pairs
          la=2 lb=0:     14 shell pairs
          la=2 lb=1:      9 shell pairs
          la=2 lb=2:      4 shell pairs
          la=3 lb=0:      5 shell pairs
          la=3 lb=1:      3 shell pairs
          la=3 lb=2:      2 shell pairs
          la=3 lb=3:      1 shell pairs

Checking whether 4 symmetric matrices of dimension 49 fit in memory
:Max Core in MB      =   4000.00
 MB in use           =      3.36
 MB left             =   3996.64
 MB needed           =      0.04
 Data fit in memory  = YES
Calculating RI/J V-Matrix + Cholesky decomp.... done (  0.0 sec)
Calculating Nuclear repulsion               ... done (  0.0 sec) ENN=      8.613642085078 Eh

Diagonalization of the overlap matrix:
Smallest eigenvalue                        ... 1.292e-01
Time for diagonalization                   ...    0.000 sec
Threshold for overlap eigenvalues          ... 1.000e-07
Number of eigenvalues below threshold      ... 0
Time for construction of square roots      ...    0.003 sec
Total time needed                          ...    0.008 sec

-------------------
DFT GRID GENERATION
-------------------

General Integration Accuracy     IntAcc      ... 4.388
Radial Grid Type                 RadialGrid  ... OptM3 with GC (2021)
Angular Grid (max. ang.)         AngularGrid ... 4 (Lebedev-302)
Angular grid pruning method      GridPruning ... 4 (adaptive)
Weight generation scheme         WeightScheme... mBecke (2022)
Basis function cutoff            BFCut       ... 1.0000e-11
Integration weight cutoff        WCut        ... 1.0000e-14
Partially contracted basis set               ... off
Rotationally invariant grid construction     ... off
Angular grids for H and He will be reduced by one unit
Core-polarized basis detected: some atoms will have their core
                               angular grid increased.

Total number of grid points                  ...    18704
Total number of batches                      ...      294
Average number of points per batch           ...       63
Average number of grid points per atom       ...     9352
Grids setup in   0.1 sec
Initializing property integral containers    ... done (  0.0 sec)

SHARK setup successfully completed in   0.2 seconds

Maximum memory used throughout the entire STARTUP-calculation: 13.8 MB


           ************************************************************
           *        Program running with 8 parallel MPI-processes     *
           *              working on a common directory               *
           ************************************************************
-------------------------------------------------------------------------------
                                 ORCA GUESS
                   Start orbitals & Density for SCF / CASSCF
-------------------------------------------------------------------------------

------------
SCF SETTINGS
------------
Hamiltonian:
 Density Functional     Method          .... DFT(GTOs)
 Exchange Functional    Exchange        .... PBE
   PBE kappa parameter   XKappa         ....  0.804000
   PBE mue parameter    XMuePBE         ....  0.219520
 Correlation Functional Correlation     .... PBE
   PBE beta parameter  CBetaPBE         ....  0.066725
 LDA part of GGA corr.  LDAOpt          .... PW91-LDA
 Gradients option       PostSCFGGA      .... off
   NL short-range parameter             ....  6.400000
 RI-approximation to the Coulomb term is turned on
   Number of AuxJ basis functions       .... 140


General Settings:
 Integral files         IntName         .... orca
 Hartree-Fock type      HFTyp           .... UHF
 Total Charge           Charge          ....    0
 Multiplicity           Mult            ....    2
 Number of Electrons    NEL             ....   43
 Basis Dimension        Dim             ....   49
 Nuclear Repulsion      ENuc            ....      8.6136420851 Eh

Convergence Acceleration:
 AO-DIIS                CNVDIIS         .... on
   Start iteration      DIISMaxIt       ....    12
   Startup error        DIISStart       ....  3.000000
   # of expansion vecs  DIISMaxEq       ....     5
   Bias factor          DIISBfac        ....   1.050
   Max. coefficient     DIISMaxC        ....  10.000
 MO-DIIS                CNVKDIIS        .... off
 Trust-Rad. Augm. Hess. CNVTRAH         .... auto
   Auto Start mean grad. ratio tolernc. ....  1.125000
   Auto Start start iteration           ....    50
   Auto Start num. interpolation iter.  ....    10
   Max. Number of Micro iterations      ....    24
   Max. Number of Macro iterations      .... Maxiter - #DIIS iter
   Number of Davidson start vectors     ....     2
   Converg. threshold    (grad. norm)   ....   1.000e-05
   Grad. Scal. Fac. for Micro threshold ....   0.100
   Minimum threshold for Micro iter.    ....   1.000e-02
   NR start threshold (gradient norm)   ....   1.000e-04
   Initial trust radius                 ....   0.400
   Minimum AH scaling param. (alpha)    ....   1.000
   Maximum AH scaling param. (alpha)    .... 1000.000
   Quad. conv. algorithm                .... NR
   White noise on init. David. guess    .... on
   Maximum white noise                  ....   0.010
   Pseudo random numbers                .... off
   Inactive MOs                         .... canonical
   Orbital update algorithm             .... Taylor
   Preconditioner                       .... Diag
   Full preconditioner red. dimension   ....   250
 SOSCF                 CNVSOSCF           .... on
   Start iteration     SOSCFMaxIt         ....   150
   Startup grad/error  SOSCFStart         ....  8.000000
   Hessian update      SOSCFHessUp        .... L-BFGS
   Autom. constraints  SOSCFAutoConstrain .... off
 Level Shifting         CNVShift        .... on
   Level shift para.    LevelShift      ....    0.2500
   Turn off err/grad.   ShiftErr        ....    0.0010
 Zerner damping         CNVZerner       .... off
 Static damping         CNVDamp         .... on
   Fraction old density DampFac         ....    0.7000
   Max. Damping (<1)    DampMax         ....    0.9800
   Min. Damping (>=0)   DampMin         ....    0.0000
   Turn off err/grad.   DampErr         ....    0.1000

SCF Procedure:
 Maximum # iterations   MaxIter         ....    50
 SCF integral mode      SCFMode         .... Direct
   Integral package                     .... SHARK and LIBINT hybrid scheme
 Reset frequency        DirectResetFreq ....    20
 Integral Threshold     Thresh          ....  2.500e-11 Eh
 Primitive CutOff       TCut            ....  2.500e-12 Eh

Convergence Tolerance:
 Convergence Check Mode ConvCheckMode   .... Total+1el-Energy
 Convergence forced     ConvForced      .... 0
 Energy Change          TolE            ....  1.000e-08 Eh
 1-El. energy change                    ....  1.000e-05 Eh
 Orbital Gradient       TolG            ....  1.000e-05
 Orbital Rotation angle TolX            ....  1.000e-05
 DIIS Error             TolErr          ....  5.000e-07

------------------------------
INITIAL GUESS: MODEL POTENTIAL
------------------------------
Loading Hartree-Fock densities                     ... done
Calculating cut-offs                               ... done
Initializing the effective Hamiltonian             ... done
Setting up the integral package (SHARK)            ... done
Starting the Coulomb interaction                   ... done (   0.0 sec)
Making the grid                                    ... done (   0.0 sec)
Mapping shells                                     ... done
Starting the XC term evaluation                    ... done (   0.0 sec)
  promolecular density results
     # of electrons  =     43.000017911
     EX              =    -87.488924823
     EC              =     -1.855146422
     EX+EC           =    -89.344071245
Transforming the Hamiltonian                       ... done (   0.0 sec)
Diagonalizing the Hamiltonian                      ... done (   0.0 sec)
Back transforming the eigenvectors                 ... done (   0.0 sec)
Now organizing SCF variables                       ... done
                      ------------------
                      INITIAL GUESS DONE (   0.1 sec)
                      ------------------
             **** ENERGY FILE WAS UPDATED (orca.en.tmp) ****
Finished Guess after   5.3 sec
Maximum memory used throughout the entire GUESS-calculation: 6.9 MB


           ************************************************************
           *        Program running with 8 parallel MPI-processes     *
           *              working on a common directory               *
           ************************************************************

-------------------------------------------------------------------------------------------
                                      ORCA LEAN-SCF
                              memory conserving SCF solver
-------------------------------------------------------------------------------------------

----------------------------------------D-I-I-S--------------------------------------------
Iteration    Energy (Eh)           Delta-E    RMSDP     MaxDP     DIISErr   Damp  Time(sec)
-------------------------------------------------------------------------------------------
               ***  Starting incremental Fock matrix formation  ***
                              *** Initializing SOSCF ***
---------------------------------------S-O-S-C-F--------------------------------------
Iteration    Energy (Eh)           Delta-E    RMSDP     MaxDP     MaxGrad    Time(sec)
--------------------------------------------------------------------------------------
    1    -2020.9855485600091924     0.00e+00  8.39e-03  3.61e-02  8.01e-03     0.2
               *** Restarting incremental Fock matrix formation ***
    2    -2020.9822565017643683     3.29e-03  1.29e-02  8.35e-02  7.26e-02     0.1
    3    -2020.9706357060713344     1.16e-02  7.46e-03  4.75e-02  1.02e-01     0.1
    4    -2020.9959308005429648    -2.53e-02  1.87e-04  1.14e-03  1.74e-03     0.1
    5    -2020.9959430337573849    -1.22e-05  4.66e-05  3.74e-04  3.65e-04     0.1
    6    -2020.9959434167483323    -3.83e-07  9.45e-06  7.81e-05  4.95e-05     0.1
    7    -2020.9959434290888112    -1.23e-08  1.57e-06  1.82e-05  4.62e-06     0.1
    8    -2020.9959434291970410    -1.08e-10  2.86e-07  3.43e-06  7.97e-07     0.1
                 **** Energy Check signals convergence ****

               *****************************************************
               *                     SUCCESS                       *
               *           SCF CONVERGED AFTER   8 CYCLES          *
               *****************************************************

             **** ENERGY FILE WAS UPDATED (orca.en.tmp) ****

----------------
TOTAL SCF ENERGY
----------------

Total Energy       :      -2020.99594342918499 Eh          -54994.09547 eV

Components:
Nuclear Repulsion  :          8.61364208507790 Eh             234.38912 eV
Electronic Energy  :      -2029.60958551426279 Eh          -55228.48458 eV
One Electron Energy:      -2836.24930402010523 Eh          -77178.26723 eV
Two Electron Energy:        806.63971850584244 Eh           21949.78265 eV

Virial components:
Potential Energy   :      -4038.21837899795901 Eh         -109885.50856 eV
Kinetic Energy     :       2017.22243556877379 Eh           54891.41310 eV
Virial Ratio       :          2.00187064539531

DFT components:
N(Alpha)           :       21.999997140174 electrons
N(Beta)            :       20.999998621023 electrons
N(Total)           :       42.999995761197 electrons
E(X)               :      -87.387863661443 Eh       
E(C)               :       -1.852701333650 Eh       
E(XC)              :      -89.240564995094 Eh       

---------------
SCF CONVERGENCE
---------------

  Last Energy change         ...    1.0823e-10  Tolerance :   1.0000e-08
  Last MAX-Density change    ...    3.4299e-06  Tolerance :   1.0000e-07
  Last RMS-Density change    ...    2.8621e-07  Tolerance :   5.0000e-09
  Last DIIS Error            ...    5.7534e-02  Tolerance :   5.0000e-07
  Last Orbital Gradient      ...    7.9709e-07  Tolerance :   1.0000e-05
  Last Orbital Rotation      ...    1.9196e-06  Tolerance :   1.0000e-05


----------------------
UHF SPIN CONTAMINATION
----------------------

Warning: in a DFT calculation there is little theoretical justification to 
         calculate <S**2> as in Hartree-Fock theory. We will do it anyways
         but you should keep in mind that the values have only limited relevance

Expectation value of <S**2>     :     0.752697
Ideal value S*(S+1) for S=0.5   :     0.750000
Deviation                       :     0.002697

----------------
ORBITAL ENERGIES
----------------
                 SPIN UP ORBITALS
  NO   OCC          E(Eh)            E(eV) 
   0   1.0000    -345.648619     -9405.5771 
   1   1.0000     -55.397080     -1507.4312 
   2   1.0000     -41.616627     -1132.4460 
   3   1.0000     -36.698842      -998.6262 
   4   1.0000     -36.698841      -998.6262 
   5   1.0000     -36.698841      -998.6262 
   6   1.0000      -4.554058      -123.9222 
   7   1.0000      -3.950809      -107.5070 
   8   1.0000      -2.988740       -81.3277 
   9   1.0000      -2.988740       -81.3277 
  10   1.0000      -2.988740       -81.3277 
  11   1.0000      -2.557805       -69.6014 
  12   1.0000      -2.557805       -69.6014 
  13   1.0000      -2.554975       -69.5244 
  14   1.0000      -0.346977        -9.4417 
  15   1.0000      -0.346976        -9.4417 
  16   1.0000      -0.346976        -9.4417 
  17   1.0000      -0.346976        -9.4417 
  18   1.0000      -0.346976        -9.4417 
  19   1.0000      -0.285653        -7.7730 
  20   1.0000      -0.202601        -5.5131 
  21   1.0000      -0.110548        -3.0082 
  22   0.0000      -0.098609        -2.6833 
  23   0.0000      -0.098608        -2.6833 
  24   0.0000       0.029100         0.7918 
  25   0.0000       0.029100         0.7919 
  26   0.0000       0.029100         0.7919 
  27   0.0000       0.075262         2.0480 
  28   0.0000       0.081684         2.2227 
  29   0.0000       0.273892         7.4530 
  30   0.0000       0.283833         7.7235 
  31   0.0000       0.283834         7.7235 
  32   0.0000       0.373724        10.1695 
  33   0.0000       0.373724        10.1695 
  34   0.0000       0.379553        10.3282 
  35   0.0000       0.385689        10.4951 
  36   0.0000       0.385689        10.4951 
  37   0.0000       1.291144        35.1338 
  38   0.0000       1.291144        35.1338 
  39   0.0000       1.291144        35.1338 
  40   0.0000       1.291144        35.1338 
  41   0.0000       1.291144        35.1338 
  42   0.0000       6.444297       175.3582 
  43   0.0000       6.444297       175.3582 
  44   0.0000       6.444297       175.3582 
  45   0.0000       6.444297       175.3582 
  46   0.0000       6.444297       175.3582 
  47   0.0000       6.444297       175.3582 
  48   0.0000       6.444297       175.3582 

                 SPIN DOWN ORBITALS
  NO   OCC          E(Eh)            E(eV) 
   0   1.0000    -345.648619     -9405.5771 
   1   1.0000     -55.395451     -1507.3869 
   2   1.0000     -41.616627     -1132.4460 
   3   1.0000     -36.698842      -998.6262 
   4   1.0000     -36.698841      -998.6262 
   5   1.0000     -36.698841      -998.6262 
   6   1.0000      -4.554058      -123.9222 
   7   1.0000      -3.948797      -107.4522 
   8   1.0000      -2.988740       -81.3277 
   9   1.0000      -2.988740       -81.3277 
  10   1.0000      -2.988740       -81.3277 
  11   1.0000      -2.556878       -69.5762 
  12   1.0000      -2.556878       -69.5762 
  13   1.0000      -2.549361       -69.3716 
  14   1.0000      -0.346977        -9.4417 
  15   1.0000      -0.346976        -9.4417 
  16   1.0000      -0.346976        -9.4417 
  17   1.0000      -0.346976        -9.4417 
  18   1.0000      -0.346976        -9.4417 
  19   1.0000      -0.263329        -7.1656 
  20   1.0000      -0.202601        -5.5131 
  21   0.0000      -0.088032        -2.3955 
  22   0.0000      -0.088032        -2.3955 
  23   0.0000      -0.058779        -1.5995 
  24   0.0000       0.029100         0.7918 
  25   0.0000       0.029100         0.7919 
  26   0.0000       0.029100         0.7919 
  27   0.0000       0.075262         2.0480 
  28   0.0000       0.098665         2.6848 
  29   0.0000       0.290378         7.9016 
  30   0.0000       0.290379         7.9016 
  31   0.0000       0.312969         8.5163 
  32   0.0000       0.385536        10.4910 
  33   0.0000       0.385536        10.4910 
  34   0.0000       0.414776        11.2866 
  35   0.0000       0.414776        11.2866 
  36   0.0000       0.425463        11.5774 
  37   0.0000       1.291144        35.1338 
  38   0.0000       1.291144        35.1338 
  39   0.0000       1.291144        35.1338 
  40   0.0000       1.291144        35.1338 
  41   0.0000       1.291144        35.1338 
  42   0.0000       6.444297       175.3582 
  43   0.0000       6.444297       175.3582 
  44   0.0000       6.444297       175.3582 
  45   0.0000       6.444297       175.3582 
  46   0.0000       6.444297       175.3582 
  47   0.0000       6.444297       175.3582 
  48   0.0000       6.444297       175.3582 

                    ********************************
                    * MULLIKEN POPULATION ANALYSIS *
                    ********************************

--------------------------------------------
MULLIKEN ATOMIC CHARGES AND SPIN POPULATIONS
--------------------------------------------
   0 Al:    0.000000    1.000000
   1 Zn:    0.000000   -0.000000
Sum of atomic charges         :    0.0000000
Sum of atomic spin populations:    1.0000000

-----------------------------------------------------
MULLIKEN REDUCED ORBITAL CHARGES AND SPIN POPULATIONS
-----------------------------------------------------
CHARGE
  0 Als       :     5.998266  s :     5.998266
      pz      :     2.303584  p :     7.000000
      px      :     2.034741
      py      :     2.661676
      dz2     :     0.000003  d :     0.001734
      dxz     :     0.000055
      dyz     :     0.001045
      dx2y2   :     0.000511
      dxy     :     0.000120

  1 Zns       :     8.000000  s :     8.000000
      pz      :     4.000000  p :    12.000000
      px      :     4.000000
      py      :     4.000000
      dz2     :     2.000000  d :    10.000000
      dxz     :     2.000000
      dyz     :     2.000000
      dx2y2   :     2.000000
      dxy     :     2.000000
      f0      :     0.000000  f :     0.000000
      f+1     :     0.000000
      f-1     :     0.000000
      f+2     :     0.000000
      f-2     :     0.000000
      f+3     :     0.000000
      f-3     :     0.000000


SPIN
  0 Als       :     0.001471  s :     0.001471
      pz      :     0.303584  p :     1.000000
      px      :     0.034741
      py      :     0.661676
      dz2     :    -0.000003  d :    -0.001471
      dxz     :    -0.000047
      dyz     :    -0.000887
      dx2y2   :    -0.000434
      dxy     :    -0.000101

  1 Zns       :    -0.000000  s :    -0.000000
      pz      :    -0.000000  p :    -0.000000
      px      :    -0.000000
      py      :    -0.000000
      dz2     :    -0.000000  d :    -0.000000
      dxz     :     0.000000
      dyz     :     0.000000
      dx2y2   :     0.000000
      dxy     :    -0.000000
      f0      :     0.000000  f :    -0.000000
      f+1     :     0.000000
      f-1     :    -0.000000
      f+2     :    -0.000000
      f-2     :    -0.000000
      f+3     :     0.000000
      f-3     :     0.000000


------------------------
MULLIKEN OVERLAP CHARGES
------------------------



                     *******************************
                     * LOEWDIN POPULATION ANALYSIS *
                     *******************************

-------------------------------------------
LOEWDIN ATOMIC CHARGES AND SPIN POPULATIONS
-------------------------------------------
   0 Al:    0.000000    1.000000
   1 Zn:    0.000000   -0.000000

----------------------------------------------------
LOEWDIN REDUCED ORBITAL CHARGES AND SPIN POPULATIONS
----------------------------------------------------
CHARGE
  0 Als       :     5.998266  s :     5.998266
      pz      :     2.303584  p :     7.000000
      px      :     2.034741
      py      :     2.661676
      dz2     :     0.000003  d :     0.001734
      dxz     :     0.000055
      dyz     :     0.001045
      dx2y2   :     0.000511
      dxy     :     0.000120

  1 Zns       :     8.000000  s :     8.000000
      pz      :     4.000000  p :    12.000000
      px      :     4.000000
      py      :     4.000000
      dz2     :     2.000000  d :    10.000000
      dxz     :     2.000000
      dyz     :     2.000000
      dx2y2   :     2.000000
      dxy     :     2.000000
      f0      :     0.000000  f :     0.000000
      f+1     :     0.000000
      f-1     :     0.000000
      f+2     :     0.000000
      f-2     :     0.000000
      f+3     :     0.000000
      f-3     :     0.000000


SPIN
  0 Als       :     0.001471  s :     0.001471
      pz      :     0.303584  p :     1.000000
      px      :     0.034741
      py      :     0.661676
      dz2     :    -0.000003  d :    -0.001471
      dxz     :    -0.000047
      dyz     :    -0.000887
      dx2y2   :    -0.000434
      dxy     :    -0.000101

  1 Zns       :    -0.000000  s :    -0.000000
      pz      :    -0.000000  p :    -0.000000
      px      :    -0.000000
      py      :    -0.000000
      dz2     :    -0.000000  d :    -0.000000
      dxz     :     0.000000
      dyz     :     0.000000
      dx2y2   :     0.000000
      dxy     :    -0.000000
      f0      :     0.000000  f :    -0.000000
      f+1     :     0.000000
      f-1     :    -0.000000
      f+2     :    -0.000000
      f-2     :    -0.000000
      f+3     :     0.000000
      f-3     :     0.000000


---------------------------------
LOEWDIN BOND ORDERS (THRESH 0.050000)
---------------------------------


------------------------------------------
LOEWDIN REDUCED ORBITAL POPULATIONS PER MO
-------------------------------------------
THRESHOLD FOR PRINTING IS 0.1%%
SPIN UP
                      0         1         2         3         4         5   
                 -345.64862 -55.39708 -41.61663 -36.69884 -36.69884 -36.69884
                   1.00000   1.00000   1.00000   1.00000   1.00000   1.00000
                  --------  --------  --------  --------  --------  --------
 0 Al s               0.0     100.0       0.0       0.0       0.0       0.0
 1 Zn s             100.0       0.0     100.0       0.0       0.0       0.0
 1 Zn pz              0.0       0.0       0.0      59.8       9.9      30.4
 1 Zn px              0.0       0.0       0.0       6.4      90.1       3.5
 1 Zn py              0.0       0.0       0.0      33.8       0.0      66.2

                      6         7         8         9        10        11   
                  -4.55406  -3.95081  -2.98874  -2.98874  -2.98874  -2.55780
                   1.00000   1.00000   1.00000   1.00000   1.00000   1.00000
                  --------  --------  --------  --------  --------  --------
 0 Al s               0.0     100.0       0.0       0.0       0.0       0.0
 0 Al pz              0.0       0.0       0.0       0.0       0.0      10.7
 0 Al px              0.0       0.0       0.0       0.0       0.0      89.3
 1 Zn s             100.0       0.0       0.0       0.0       0.0       0.0
 1 Zn pz              0.0       0.0      59.8       9.9      30.3       0.0
 1 Zn px              0.0       0.0       6.4      90.1       3.5       0.0
 1 Zn py              0.0       0.0      33.8       0.0      66.2       0.0

                     12        13        14        15        16        17   
                  -2.55780  -2.55497  -0.34698  -0.34698  -0.34698  -0.34698
                   1.00000   1.00000   1.00000   1.00000   1.00000   1.00000
                  --------  --------  --------  --------  --------  --------
 0 Al pz             58.9      30.4       0.0       0.0       0.0       0.0
 0 Al px              7.2       3.5       0.0       0.0       0.0       0.0
 0 Al py             33.8      66.2       0.0       0.0       0.0       0.0
 1 Zn dz2             0.0       0.0      17.4      17.8      54.4       8.9
 1 Zn dxz             0.0       0.0      15.5      42.7       8.1      21.8
 1 Zn dyz             0.0       0.0      50.0       3.2       9.5       6.4
 1 Zn dx2y2           0.0       0.0      11.8       5.6      27.1       3.1
 1 Zn dxy             0.0       0.0       5.3      30.6       0.9      59.8

                     18        19        20        21        22        23   
                  -0.34698  -0.28565  -0.20260  -0.11055  -0.09861  -0.09861
                   1.00000   1.00000   1.00000   1.00000   0.00000   0.00000
                  --------  --------  --------  --------  --------  --------
 0 Al s               0.0     100.0       0.0       0.0       0.0       0.0
 0 Al pz              0.0       0.0       0.0      30.4      10.1      59.6
 0 Al px              0.0       0.0       0.0       3.5      89.9       6.6
 0 Al py              0.0       0.0       0.0      66.2       0.0      33.8
 1 Zn s               0.0       0.0     100.0       0.0       0.0       0.0
 1 Zn dz2             1.5       0.0       0.0       0.0       0.0       0.0
 1 Zn dxz            11.9       0.0       0.0       0.0       0.0       0.0
 1 Zn dyz            30.8       0.0       0.0       0.0       0.0       0.0
 1 Zn dx2y2          52.3       0.0       0.0       0.0       0.0       0.0
 1 Zn dxy             3.4       0.0       0.0       0.0       0.0       0.0

                     24        25        26        27        28        29   
                   0.02910   0.02910   0.02910   0.07526   0.08168   0.27389
                   0.00000   0.00000   0.00000   0.00000   0.00000   0.00000
                  --------  --------  --------  --------  --------  --------
 0 Al s               0.0       0.0       0.0       0.0     100.0       0.0
 0 Al pz              0.0       0.0       0.0       0.0       0.0      30.4
 0 Al px              0.0       0.0       0.0       0.0       0.0       3.5
 0 Al py              0.0       0.0       0.0       0.0       0.0      66.2
 1 Zn s               0.0       0.0       0.0     100.0       0.0       0.0
 1 Zn pz             59.7       9.9      30.4       0.0       0.0       0.0
 1 Zn px              6.4      90.1       3.5       0.0       0.0       0.0
 1 Zn py             33.9       0.0      66.1       0.0       0.0       0.0

                     30        31        32        33        34        35   
                   0.28383   0.28383   0.37372   0.37372   0.37955   0.38569
                   0.00000   0.00000   0.00000   0.00000   0.00000   0.00000
                  --------  --------  --------  --------  --------  --------
 0 Al pz             10.2      59.4       0.0       0.0       0.0       0.0
 0 Al px             89.8       6.8       0.0       0.0       0.0       0.0
 0 Al py              0.0      33.8       0.0       0.0       0.0       0.0
 0 Al dz2             0.0       0.0      14.2      49.2       0.2       2.9
 0 Al dxz             0.0       0.0      18.6      11.0       3.2      56.4
 0 Al dyz             0.0       0.0       8.4       7.8      60.3       9.3
 0 Al dx2y2           0.0       0.0       1.5      28.8      29.5      15.7
 0 Al dxy             0.0       0.0      57.2       3.2       6.9      15.7

                     36        37        38        39        40        41   
                   0.38569   1.29114   1.29114   1.29114   1.29114   1.29114
                   0.00000   0.00000   0.00000   0.00000   0.00000   0.00000
                  --------  --------  --------  --------  --------  --------
 0 Al dz2            33.5       0.0       0.0       0.0       0.0       0.0
 0 Al dxz            10.8       0.0       0.0       0.0       0.0       0.0
 0 Al dyz            14.2       0.0       0.0       0.0       0.0       0.0
 0 Al dx2y2          24.5       0.0       0.0       0.0       0.0       0.0
 0 Al dxy            17.0       0.0       0.0       0.0       0.0       0.0
 1 Zn dz2             0.0      17.5      18.0      54.4       8.8       1.4
 1 Zn dxz             0.0      16.0      42.7       8.1      21.9      11.3
 1 Zn dyz             0.0      48.6       3.3       9.5       6.3      32.3
 1 Zn dx2y2           0.0      12.7       5.6      27.1       3.0      51.6
 1 Zn dxy             0.0       5.2      30.4       0.9      60.1       3.4

                     42        43        44        45        46        47   
                   6.44430   6.44430   6.44430   6.44430   6.44430   6.44430
                   0.00000   0.00000   0.00000   0.00000   0.00000   0.00000
                  --------  --------  --------  --------  --------  --------
 1 Zn f0              0.4      15.5      44.8      26.9       9.0       3.2
 1 Zn f+1            17.8      10.5      14.9      24.8      19.9       1.2
 1 Zn f-1            34.3      11.2       4.1       2.4      36.3       8.6
 1 Zn f+2            20.5      14.5      23.5       1.1       1.7      15.6
 1 Zn f-2            18.4      33.2       0.0       6.8       1.0      24.4
 1 Zn f+3             4.6       8.4       2.8      36.7       0.6      41.4
 1 Zn f-3             4.1       6.6       9.9       1.2      31.5       5.6

                     48   
                   6.44430
                   0.00000
                  --------
 1 Zn f0              0.2
 1 Zn f+1            10.9
 1 Zn f-1             3.0
 1 Zn f+2            23.0
 1 Zn f-2            16.2
 1 Zn f+3             5.5
 1 Zn f-3            41.2

SPIN DOWN
                      0         1         2         3         4         5   
                 -345.64862 -55.39545 -41.61663 -36.69884 -36.69884 -36.69884
                   1.00000   1.00000   1.00000   1.00000   1.00000   1.00000
                  --------  --------  --------  --------  --------  --------
 0 Al s               0.0     100.0       0.0       0.0       0.0       0.0
 1 Zn s             100.0       0.0     100.0       0.0       0.0       0.0
 1 Zn pz              0.0       0.0       0.0      59.8       9.9      30.4
 1 Zn px              0.0       0.0       0.0       6.4      90.1       3.5
 1 Zn py              0.0       0.0       0.0      33.8       0.0      66.2

                      6         7         8         9        10        11   
                  -4.55406  -3.94880  -2.98874  -2.98874  -2.98874  -2.55688
                   1.00000   1.00000   1.00000   1.00000   1.00000   1.00000
                  --------  --------  --------  --------  --------  --------
 0 Al s               0.0     100.0       0.0       0.0       0.0       0.0
 0 Al pz              0.0       0.0       0.0       0.0       0.0       9.8
 0 Al px              0.0       0.0       0.0       0.0       0.0      90.2
 1 Zn s             100.0       0.0       0.0       0.0       0.0       0.0
 1 Zn pz              0.0       0.0      59.8       9.9      30.3       0.0
 1 Zn px              0.0       0.0       6.4      90.1       3.5       0.0
 1 Zn py              0.0       0.0      33.8       0.0      66.2       0.0

                     12        13        14        15        16        17   
                  -2.55688  -2.54936  -0.34698  -0.34698  -0.34698  -0.34698
                   1.00000   1.00000   1.00000   1.00000   1.00000   1.00000
                  --------  --------  --------  --------  --------  --------
 0 Al pz             59.9      30.4       0.0       0.0       0.0       0.0
 0 Al px              6.3       3.5       0.0       0.0       0.0       0.0
 0 Al py             33.8      66.2       0.0       0.0       0.0       0.0
 1 Zn dz2             0.0       0.0      17.4      17.8      54.4       8.9
 1 Zn dxz             0.0       0.0      15.5      42.7       8.1      21.8
 1 Zn dyz             0.0       0.0      50.0       3.2       9.5       6.4
 1 Zn dx2y2           0.0       0.0      11.8       5.6      27.1       3.1
 1 Zn dxy             0.0       0.0       5.3      30.6       0.9      59.8

                     18        19        20        21        22        23   
                  -0.34698  -0.26333  -0.20260  -0.08803  -0.08803  -0.05878
                   1.00000   1.00000   1.00000   0.00000   0.00000   0.00000
                  --------  --------  --------  --------  --------  --------
 0 Al s               0.0      99.8       0.0       0.0       0.0       0.0
 0 Al pz              0.0       0.0       0.0       9.9      59.8      30.4
 0 Al px              0.0       0.0       0.0      90.1       6.4       3.5
 0 Al py              0.0       0.0       0.0       0.0      33.8      66.2
 1 Zn s               0.0       0.0     100.0       0.0       0.0       0.0
 1 Zn dz2             1.5       0.0       0.0       0.0       0.0       0.0
 1 Zn dxz            11.9       0.0       0.0       0.0       0.0       0.0
 1 Zn dyz            30.8       0.0       0.0       0.0       0.0       0.0
 1 Zn dx2y2          52.3       0.0       0.0       0.0       0.0       0.0
 1 Zn dxy             3.4       0.0       0.0       0.0       0.0       0.0

                     24        25        26        27        28        29   
                   0.02910   0.02910   0.02910   0.07526   0.09867   0.29038
                   0.00000   0.00000   0.00000   0.00000   0.00000   0.00000
                  --------  --------  --------  --------  --------  --------
 0 Al s               0.0       0.0       0.0       0.0      99.9       0.0
 0 Al pz              0.0       0.0       0.0       0.0       0.0       9.9
 0 Al px              0.0       0.0       0.0       0.0       0.0      90.1
 1 Zn s               0.0       0.0       0.0     100.0       0.0       0.0
 1 Zn pz             59.7       9.9      30.4       0.0       0.0       0.0
 1 Zn px              6.4      90.1       3.5       0.0       0.0       0.0
 1 Zn py             33.9       0.0      66.1       0.0       0.0       0.0

                     30        31        32        33        34        35   
                   0.29038   0.31297   0.38554   0.38554   0.41478   0.41478
                   0.00000   0.00000   0.00000   0.00000   0.00000   0.00000
                  --------  --------  --------  --------  --------  --------
 0 Al pz             59.8      30.4       0.0       0.0       0.0       0.0
 0 Al px              6.4       3.5       0.0       0.0       0.0       0.0
 0 Al py             33.8      66.2       0.0       0.0       0.0       0.0
 0 Al dz2             0.0       0.0      17.7      18.6       9.0      54.4
 0 Al dxz             0.0       0.0      42.8      24.4      21.5       8.1
 0 Al dyz             0.0       0.0       3.2      20.3       6.7       9.5
 0 Al dx2y2           0.0       0.0       5.7      34.5       3.2      27.1
 0 Al dxy             0.0       0.0      30.6       2.0      59.5       1.0

                     36        37        38        39        40        41   
                   0.42546   1.29114   1.29114   1.29114   1.29114   1.29114
                   0.00000   0.00000   0.00000   0.00000   0.00000   0.00000
                  --------  --------  --------  --------  --------  --------
 0 Al s               0.2       0.0       0.0       0.0       0.0       0.0
 0 Al dz2             0.2       0.0       0.0       0.0       0.0       0.0
 0 Al dxz             3.2       0.0       0.0       0.0       0.0       0.0
 0 Al dyz            60.1       0.0       0.0       0.0       0.0       0.0
 0 Al dx2y2          29.4       0.0       0.0       0.0       0.0       0.0
 0 Al dxy             6.9       0.0       0.0       0.0       0.0       0.0
 1 Zn dz2             0.0      17.5      18.0      54.4       8.8       1.4
 1 Zn dxz             0.0      16.0      42.7       8.1      21.9      11.3
 1 Zn dyz             0.0      48.6       3.3       9.5       6.3      32.3
 1 Zn dx2y2           0.0      12.7       5.6      27.1       3.0      51.6
 1 Zn dxy             0.0       5.2      30.4       0.9      60.1       3.4

                     42        43        44        45        46        47   
                   6.44430   6.44430   6.44430   6.44430   6.44430   6.44430
                   0.00000   0.00000   0.00000   0.00000   0.00000   0.00000
                  --------  --------  --------  --------  --------  --------
 1 Zn f0              0.4      15.5      44.8      26.9       9.0       3.2
 1 Zn f+1            17.8      10.5      14.9      24.8      19.9       1.2
 1 Zn f-1            34.3      11.2       4.1       2.4      36.3       8.6
 1 Zn f+2            20.5      14.5      23.5       1.1       1.7      15.6
 1 Zn f-2            18.4      33.2       0.0       6.8       1.0      24.4
 1 Zn f+3             4.6       8.4       2.8      36.7       0.6      41.4
 1 Zn f-3             4.1       6.6       9.9       1.2      31.5       5.6

                     48   
                   6.44430
                   0.00000
                  --------
 1 Zn f0              0.2
 1 Zn f+1            10.9
 1 Zn f-1             3.0
 1 Zn f+2            23.1
 1 Zn f-2            16.2
 1 Zn f+3             5.5
 1 Zn f-3            41.2


                      *****************************
                      * MAYER POPULATION ANALYSIS *
                      *****************************

  NA   - Mulliken gross atomic population
  ZA   - Total nuclear charge
  QA   - Mulliken gross atomic charge
  VA   - Mayer's total valence
  BVA  - Mayer's bonded valence
  FA   - Mayer's free valence

  ATOM       NA         ZA         QA         VA         BVA        FA
  0 Al    13.0000    13.0000     0.0000     1.0054     0.0000     1.0054
  1 Zn    30.0000    30.0000     0.0000     0.0000     0.0000     0.0000

  Mayer bond orders larger than 0.100000
  => no bond orders to print


------------------
HIRSHFELD ANALYSIS
------------------

Total integrated alpha density =     21.999997140
Total integrated beta density  =     20.999998621

  ATOM     CHARGE      SPIN    
   0 Al   0.000003    0.999999
   1 Zn   0.000001   -0.000000

  TOTAL   0.000004    0.999999


------------------
MBIS ANALYSIS
------------------

Convergence threshold (charges)      ...        1.000e-06
Number of iterations                 ...        2

Total integrated alpha density       ...     21.999997140
Total integrated beta density        ...     20.999998621

  ATOM     CHARGE    POPULATION     SPIN    
   0 Al   0.000003   12.999997    0.999999
   1 Zn   0.000001   29.999999   -0.000000

  TOTAL   0.000004   42.999996    0.999999

 MBIS VALENCE-SHELL DATA:
  ATOM   POPULATION   WIDTH(A.U.)
   0 Al   4.370449    0.739561
   1 Zn   4.803502    0.623744

-------------------------
CHELPG CHARGES GENERATION
-------------------------
Number of atoms                    ...            2
Number of "pure atoms"             ...            2
Grid spacing                       ...     0.300000
Point Cut-Off                      ...     2.800000
Van-der-Waals Radii                ...        COSMO
Total charge                       ...            0
Dipole moment constraint           ...        FALSE
Equivalent atom charge constraint  ...        FALSE

Grid generated                     ...      0.0 sec
Grid points                        ...         3456
Potential calculated               ...      0.0 sec
RespFile stored                    ...           ok
Charges calculated                 ...      0.0 sec

CHELPG Charges            
--------------------------------
  0   Al  :       0.013091
  1   Zn  :      -0.013091
--------------------------------
Total charge:     0.000000
--------------------------------

CHELPG charges calculated...

Timings:
Grid generation                 ...        0.006 sec (=   0.000 min)
Potential calculation           ...        0.026 sec (=   0.000 min)
Fit to the potential            ...        0.000 sec (=   0.000 min)
------------------------------------------------------------------------------

-------
TIMINGS
-------

Total SCF time: 0 days 0 hours 0 min 1 sec 

Total time                  ....       1.503 sec
Sum of individual times     ....       1.279 sec  ( 85.1%)

SCF preparation             ....       0.130 sec  (  8.7%)
Fock matrix formation       ....       0.625 sec  ( 41.6%)
  Startup                   ....       0.051 sec  (  8.2% of F)
  Split-RI-J                ....       0.069 sec  ( 11.0% of F)
  XC integration            ....       0.285 sec  ( 45.6% of F)
    Basis function eval.    ....       0.007 sec  (  2.4% of XC)
    Density eval.           ....       0.004 sec  (  1.3% of XC)
    XC-Functional eval.     ....       0.007 sec  (  2.5% of XC)
    XC-Potential eval.      ....       0.005 sec  (  1.6% of XC)
Diagonalization             ....       0.000 sec  (  0.0%)
Density matrix formation    ....       0.141 sec  (  9.4%)
Total Energy calculation    ....       0.042 sec  (  2.8%)
Population analysis         ....       0.119 sec  (  7.9%)
Orbital Transformation      ....       0.021 sec  (  1.4%)
Orbital Orthonormalization  ....       0.000 sec  (  0.0%)
DIIS solution               ....       0.017 sec  (  1.2%)
  MO trafo                  ....       0.000 sec  (  0.0 % of DIIS)
  Orb grad                  ....       0.000 sec  (  0.0 % of DIIS)
  Energy W gradient         ....       0.000 sec  (  0.0 % of DIIS)
  DIIS error                ....       0.001 sec  (  5.6 % of DIIS)
  DIIS work                 ....       0.012 sec  ( 67.2 % of DIIS)
  Form Q                    ....       0.000 sec  (  0.0 % of DIIS)
  Form QpQm                 ....       0.000 sec  (  0.0 % of DIIS)
  Exp/Cayley                ....       0.000 sec  (  0.0 % of DIIS)
  Orb update                ....       0.000 sec  (  0.0 % of DIIS)
  Wake-sleep                ....       0.005 sec  ( 27.1 % of DIIS)
SOSCF solution              ....       0.183 sec  ( 12.2%)
  MO trafo                  ....       0.068 sec  ( 37.2 % of SOSCF)
  Orb grad                  ....       0.016 sec  (  8.8 % of SOSCF)
  Rot update                ....       0.028 sec  ( 15.0 % of SOSCF)
  Step                      ....       0.039 sec  ( 21.2 % of SOSCF)
Finished LeanSCF after   1.5 sec

Maximum memory used throughout the entire LEANSCF-calculation: 9.8 MB


           ************************************************************
           *        Program running with 8 parallel MPI-processes     *
           *              working on a common directory               *
           ************************************************************

------------------------------------------------------------------------------
                         ORCA PROPERTY INTEGRAL CALCULATIONS
------------------------------------------------------------------------------

GBWName                                   ... orca.gbw
Number of atoms                           ...      2
Number of basis functions                 ...     49
Max core memory                           ...   4000 MB

Dipole integrals                          ... YES
Quadrupole integrals                      ... YES
Linear momentum integrals                 ...  NO
Angular momentum integrals                ...  NO
Higher moments length integrals           ...  NO
Higher moments velocity integrals         ...  NO
Kinetic energy integrals                  ...  NO
GIAO right hand sides                     ...  NO
GIAO dipole derivative integrals          ...  NO
SOC integrals                             ...  NO
EPR diamagnetic integrals (GIAO)          ...  NO
EPR gauge integrals                       ...  NO
Field gradient integrals                  ...  NO (   0 nuclei)
Spin-dipole/Fermi contact integrals       ...  NO (   0 nuclei)
Contact density integrals                 ...  NO (   0 nuclei)
Nucleus-orbit integrals                   ...  NO (   0 nuclei)
Geometric perturbations                   ...  NO (   2 nuclei)

Choice of electric origin   ... Center of mass
Position of electric origin ... (  0.3468,  0.3647,  0.7285) 
Choice of magnetic origin   ... GIAO
Position of magnetic origin ... (  0.0000,  0.0000,  0.0000) 

Calculating integrals                     ... Electric Dipole (Length)     done (  0.0 sec)
Calculating integrals                     ... Electric Quadrupole (Length) done (  0.0 sec)

Property integrals calculated in   0.0 sec

Maximum memory used throughout the entire PROPINT-calculation: 7.1 MB


-------------------------------------------------------------------------------
                          DFT DISPERSION CORRECTION                            
                                                                               
                                DFTD4 V3.4.0                                   
-------------------------------------------------------------------------------
The PBE functional is recognized
Active option DFTDOPT                   ...         5   

-------------------------   ----------------
Dispersion correction           -0.000000053
-------------------------   ----------------


-------------------------   --------------------
FINAL SINGLE POINT ENERGY     -2020.995943482014
-------------------------   --------------------



           ************************************************************
           *        Program running with 8 parallel MPI-processes     *
           *              working on a common directory               *
           ************************************************************
------------------------------------------------------------------------------
                         ORCA SCF GRADIENT CALCULATION
------------------------------------------------------------------------------

Nuc. rep. gradient        (SHARK) ... done (  0.0 sec)
HCore & Overlap gradient  (SHARK) ... done (  0.0 sec)
Split-RIJ-J gradient      (SHARK) ... done (  0.1 sec)
XC gradient                       ... done (  0.0 sec)
Dispersion correction             ... done (  0.0 sec)

-------------------
DISPERSION GRADIENT
-------------------

   1   Al  :   -0.000000002   -0.000000004    0.000000005
   2   Zn  :    0.000000002    0.000000004   -0.000000005

Difference to translation invariance:
           :    0.0000000000    0.0000000000    0.0000000000

Difference to rotation invariance:
           :    0.0000000000   -0.0000000000   -0.0000000000

Norm of the Dispersion gradient    ...    0.0000000100
RMS gradient                       ...    0.0000000041
MAX gradient                       ...    0.0000000055

------------------
CARTESIAN GRADIENT
------------------

   1   Al  :    0.000000009    0.000000021   -0.000000028
   2   Zn  :   -0.000000009   -0.000000020    0.000000027

Difference to translation invariance:
           :    0.0000000004    0.0000000009   -0.0000000012

Difference to rotation invariance:
           :   -0.0000000024   -0.0000000005   -0.0000000012

Norm of the Cartesian gradient     ...    0.0000000498
RMS gradient                       ...    0.0000000203
MAX gradient                       ...    0.0000000278

-------
TIMINGS
-------

Total SCF gradient time     ....        0.127 sec

Densities                   ....       0.000 sec  (  0.1%)
One electron gradient       ....       0.004 sec  (  3.3%)
RI-J Coulomb gradient       ....       0.090 sec  ( 71.2%)
XC gradient                 ....       0.011 sec  (  9.0%)

Maximum memory used throughout the entire SCFGRAD-calculation: 25.5 MB


           ************************************************************
           *        Program running with 8 parallel MPI-processes     *
           *              working on a common directory               *
           ************************************************************
------------------------------------------------------------------------------
                            ORCA SCF RESPONSE CALCULATION
------------------------------------------------------------------------------

GBWName                                 ... orca.gbw
Number of atoms                         ...      2
Number of basis functions               ...     49
Max core memory                         ...   4000 MB

Electric field perturbation             ... YES
Quadrupolar field perturbation          ...  NO
Magnetic field perturbation (no GIAO)   ...  NO
Magnetic field perturbation (with GIAO) ...  NO
Linear momentum (velocity) perturbation ...  NO
Spin-orbit coupling perturbation        ...  NO
Choice of electric origin               ... Center of mass
Position of electric origin             ...     0.346804     0.364662     0.728506
Choice of magnetic origin               ... GIAO
Position of magnetic origin             ...     0.000000     0.000000     0.000000
Nuclear geometric perturbations         ...  NO (   6 perturbations)
Nucleus-orbit perturbations             ...  NO (   0 perturbations)
Spin-dipole/Fermi contact perturbations ...  NO (   0 perturbations)

Total number of real perturbations      ...      3
Total number of imaginary perturbations ...      0
Total number of triplet perturbations   ...      0
Total number of SOC perturbations       ...      0

Using XC Grid                  ... (orca.grid_cpscf.tmp) 
Recalculating density on grid  ... (orca.grho_cpscf0.tmp) done
Calculating the xc-kernel      ... (orca.fxc_cpscf0.tmp) done

                                **********************
                                * REAL PERTURBATIONS *
                                **********************



-------------------
SHARK CP-SCF DRIVER
-------------------

Dimension of the orbital basis          ...     49
Dimension of the CPSCF-problem          ...   1182
Number of operators                     ...      2
Max. number of iterations               ...    128
Convergence Tolerance                   ... 1.0e-04
Number of perturbations                 ...      3
Perturbation type                       ... REAL

----------------------------
POPLE LINEAR EQUATION SOLVER
----------------------------

  ITERATION   0:   ||err||_max =   1.4615e+01 (   0.1 sec   0/  3 done)
  ITERATION   1:   ||err||_max =   7.1132e-01 (   0.1 sec   0/  3 done)
  ITERATION   2:   ||err||_max =   1.5204e-01 (   0.1 sec   0/  3 done)
  ITERATION   3:   ||err||_max =   7.7725e-02 (   0.1 sec   0/  3 done)
  ITERATION   4:   ||err||_max =   1.5421e-02 (   0.1 sec   0/  3 done)
  ITERATION   5:   ||err||_max =   4.2941e-03 (   0.1 sec   0/  3 done)
  ITERATION   6:   ||err||_max =   3.0988e-03 (   0.1 sec   0/  3 done)
  ITERATION   7:   ||err||_max =   6.8445e-03 (   0.1 sec   0/  3 done)
  ITERATION   8:   ||err||_max =   5.8044e-02 (   0.1 sec   0/  3 done)
  ITERATION   9:   ||err||_max =   3.7236e-02 (   0.1 sec   0/  3 done)
  ITERATION  10:   ||err||_max =   3.2757e-03 (   0.1 sec   0/  3 done)
  ITERATION  11:   ||err||_max =   3.9293e-03 (   0.1 sec   0/  3 done)
  ITERATION  12:   ||err||_max =   9.9118e-03 (   0.1 sec   0/  3 done)
  ITERATION  13:   ||err||_max =   7.6008e-02 (   0.1 sec   0/  3 done)
  ITERATION  14:   ||err||_max =   8.0639e-03 (   0.1 sec   0/  3 done)
  ITERATION  15:   ||err||_max =   4.2495e-03 (   0.1 sec   0/  3 done)
  ITERATION  16:   ||err||_max =   2.8207e-04 (   0.1 sec   0/  3 done)
  ITERATION  17:   ||err||_max =   5.1686e-05 (   0.1 sec   3/  3 done)

CP-SCF equations solved in   1.1 sec
Response densities calculated in   0.0 sec

Maximum memory used throughout the entire SCFRESP-calculation: 5.4 MB


           ************************************************************
           *        Program running with 8 parallel MPI-processes     *
           *              working on a common directory               *
           ************************************************************

------------------------------------------------------------------------------
                              ORCA PROPERTY CALCULATIONS
------------------------------------------------------------------------------

GBWName                                 ... orca.gbw
Number of atoms                         ...      2
Number of basis functions               ...     49
Max core memory                         ...   4000 MB

Electric properties:
Dipole moment                           ... YES
Quadrupole moment                       ... YES
Static polarizability (Dipole/Dipole)   ... YES
Static polarizability (Dipole/Quad.)    ...  NO
Static polarizability (Quad./Quad.)     ...  NO
Static polarizability (Velocity)        ...  NO
Static hyperpolarizability              ...  NO

Atomic electric properties:
Dipole moment                           ...  NO
Quadrupole moment                       ...  NO
Static polarizability                   ...  NO

Choice of electric origin               ... Center of mass
Position of electric origin             ...     0.346804     0.364662     0.728506

General magnetic properties:
Magnetizability                         ...  NO

EPR properties:
g-Tensor (aka g-matrix)                 ...  NO
Zero-Field splitting spin-orbit         ...  NO
Zero-field splitting spin-spin          ...  NO
Hyperfine couplings                     ...  NO (   0 nuclei)
Quadrupole couplings                    ...  NO (   0 nuclei)
Contact density                         ...  NO (   0 nuclei)

NMR properties:
Chemical shifts                         ...  NO (   0 nuclei)
Spin-rotation constants                 ...  NO (   0 nuclei)
Spin-spin couplings                     ...  NO (   0 nuclei,    0 pairs)

Choice of magnetic origin               ... GIAO
Position of magnetic origin             ...     0.000000     0.000000     0.000000

Properties with geometric perturbations:
SCF Hessian                             ...  NO
IR spectrum                             ...  NO
VCD spectrum                            ...  NO
X-ray spectroscopy properties:
SCF XES/XAS/RIXS spectra                ...  NO

SCF SOC stabilization energy            ...  NO
Diagonal Born-Oppenheimer correction    ...  NO

-------------
DIPOLE MOMENT
-------------

Method             : SCF
Type of density    : Electron Density
Multiplicity       :   2
Irrep              :   0
Energy             : -2020.9959434291849902 Eh
Basis              : AO
                                X                 Y                 Z
Electronic contribution:      5.021134182      11.541944949     -15.341121544
Nuclear contribution   :     -5.021123487     -11.541920365      15.341088868
                        -----------------------------------------
Total Dipole Moment    :      0.000010695       0.000024584      -0.000032676
                        -----------------------------------------
Magnitude (a.u.)       :      0.000042266
Magnitude (Debye)      :      0.000107433



--------------------
Rotational spectrum 
--------------------
 
Rotational constants in cm-1:             0.000000             0.001537             0.001537 
Rotational constants in MHz :             0.000000            46.092861            46.092861 

Dipole components along the rotational axes: 
x,y,z [a.u.] :     0.000042     0.000000     0.000000 
x,y,z [Debye]:     0.000107     0.000000     0.000000 

 

Dipole moment calculation done in   0.0 sec 

-----------------
QUADRUPOLE MOMENT
-----------------

Method             : SCF
Type of density    : Electron Density
Multiplicity       :   2
Irrep              :   0
Energy             : -2020.9959434291849902 Eh
Basis              : AO

                XX              YY              ZZ              XY              XZ              YZ
  NUC     1191.015612438  6293.203808465 11118.034600342  2737.755282734 -3638.921926702 -8364.691129356
  EL     -1211.127010934 -6316.414393513 -11139.474631304 -2737.005605319  3639.429466090  8362.474986540
  TOT      -20.111398496   -23.210585048   -21.440030962     0.749677415     0.507539389    -2.216142816 (a.u.)
           -27.050518787   -31.219030691   -28.837574893     1.008341762     0.682657836    -2.980787879 (Buckingham)

diagonalized tensor:
           -24.883480383   -19.939705045   -19.938829078 (a.u.)
           -33.469132131   -26.819585223   -26.818407018 (Buckingham)
           -13.300272021     6.648368703     6.651903317 (traceless form in Buckingham)

            -0.186388196     0.949341991     0.253000445
             0.813434551     0.004698051     0.581637482
             0.550984276     0.314209664    -0.773103237
        
Isotropic quadrupole :   -21.587338169

Quadrupole moment calculation done in   0.0 sec (  0.0 sec for integrals)


---------------------------------------------------
STATIC POLARIZABILITY TENSOR (Dipole/Dipole)
---------------------------------------------------

Method             : SCF
Type of density    : Electron Density
Type of derivative : Electric Field (Direction=X)
Multiplicity       :   2
Irrep              :   0
Basis              : AO

The raw cartesian tensor (atomic units):
      55.483916726        -1.268307867        -0.874602854  
      -1.268307867        60.778357499         3.756305736  
      -0.874602854         3.756305736        57.778194095  
diagonalized tensor: 
      55.188537114        55.237003947        63.614927258  

Orientation: 
       0.946518181         0.263531167        -0.186157611  
      -0.002052458         0.581869813         0.813279355  
       0.322643952        -0.769401615         0.551291243  

Isotropic polarizability :  58.01349


Polarizability tensor calculation done in   0.0 sec 

Maximum memory used throughout the entire PROP-calculation: 3.6 MB

--------------------------------
SUGGESTED CITATIONS FOR THIS RUN
--------------------------------

Below you find a list of papers that are relevant to this ORCA run
We neither can nor want to force you to cite these papers, but we appreciate if you do
You receive ORCA, which is the product of decades of hard work by many enthusiastic individuals, for free
The only thing we kindly ask in return is that you cite our papers,
We deeply appreciate it, if you show your appreciation for ORCA by not just citing the generic ORCA reference.

Please note that relegating all ORCA citations to the supporting information does *not* help us.
SI sections are not indexed - citations you put there will not count into any citation statistics
But we need these citations in order to attract the funding resources that allow us to do what we are doing

Therefore, if you are a happy ORCA user, please consider citing a few of the papers listed below in the main body of your paper

In addition to the list printed below, the program has created the file orca.bibtex that contains the list in bibtex format
You can import this file easily into all common literature databanks and citation aid programs


List of essential papers. We consider these as the minimum necessary citations

  1. Neese, F.
     Software update: the ORCA program system, version 6.0
     WIRES Comput. Molec. Sci. 2025 15(1), e70019
     doi.org/10.1002/wcms.7019

List of papers to cite with high priority. The work reported in these papers was absolutely
necessary for this run to complete.
Our perspective: the developers of density functionals and basis sets usually get cited in chemistry papers
Good! But without the algorithms to do something with them, the functionals or basis sets would not do anything.
Hence, in our opinion, the algorithm design and method developments papers are equally worthy of getting cited

  1. Neese, F.
     An improvement of the resolution of the identity approximation for the formation of the Coulomb matrix
     J. Comp. Chem. 2003 24(14), 1740-1747
     doi.org/10.1002/jcc.10318
  2. Caldeweyher, E.; Bannwarth, C.; Grimme, S.
     Extension of the D3 dispersion coefficient model
     J. Chem. Phys. 2017 147 , 034112
     doi.org/10.1063/1.4993215
  3. Caldeweyher, E.; Ehlert, S.; Hansen, A.; Neugebauer, H.; Spicher, S.; Bannwarth, C.; Grimme, S.
     A generally applicable atomic-charge dependent London dispersion correction
     J. Chem. Phys. 2019 150 , 154122
     doi.org/10.1063/1.5090222
  4. Caldeweyher, E.; Mewes, J.; Ehlert, S.; Grimme, S.
     Extension and evaluation of the D4 London-dispersion model for periodic systems
     Phys. Chem. Chem. Phys. 2020 22(16), 8499-8512
     doi.org/10.1039/D0CP00502A
  5. Neese, F.
     The SHARK Integral Generation and Digestion System
     J. Comp. Chem. 2022 44(3), 381
     doi.org/10.1002/jcc.26942
  6. Wittmann, L.; Gordiy, I.; Friede, M.; Helmich-Paris, B.; Grimme, S.; Hansen, A.; Bursch, M.
     Extension of the D3 and D4 London Dispersion Corrections to the full Actinides Series
     Phys. Chem. Chem. Phys. 2024 26(32), 21379-21394
     doi.org/10.1039/D4CP01514B

List of suggested additional citations. These are papers that are important in the 'surrounding' of 
of this run, or papers that preceded the highly important papers. If you like your results we are grateful for a citation.

  1. Neese, F.
     The ORCA program system
     WIRES Comput. Molec. Sci. 2012 2(1), 73-78
     doi.org/10.1002/wcms.81
  2. Neese, F.
     Software update: the ORCA program system, version 4.0
     WIRES Comput. Molec. Sci. 2018 8(1), 1-6
     doi.org/10.1002/wcms.1327
  3. Neese, F.; Wennmohs, F.; Becker, U.; Riplinger, C.
     The ORCA quantum chemistry program package
     J. Chem. Phys. 2020 152(22), 224108
     doi.org/10.1063/5.0004608
  4. Neese, F.
     Software update: The ORCA program system—Version 5.0
     WIRES Comput. Molec. Sci. 2022 12(1), e1606
     doi.org/10.1002/wcms.1606

List of optional additional citations

  1. Neese, F.
     Approximate second-order SCF convergence for spin unrestricted wavefunctions
     Chem. Phys. Lett. 2000 325(1-3), 93-98
     doi.org/10.1016/s0009-2614(00)00662-x

Timings for individual modules:

Sum of individual times          ...       10.142 sec (=   0.169 min)
Startup calculation              ...        0.490 sec (=   0.008 min)   4.8 %
SCF iterations                   ...        7.168 sec (=   0.119 min)  70.7 %
Property integrals               ...        0.293 sec (=   0.005 min)   2.9 %
SCF Response                     ...        1.468 sec (=   0.024 min)  14.5 %
Property calculations            ...        0.313 sec (=   0.005 min)   3.1 %
SCF Gradient evaluation          ...        0.409 sec (=   0.007 min)   4.0 %
                             ****ORCA TERMINATED NORMALLY****
TOTAL RUN TIME: 0 days 0 hours 0 minutes 10 seconds 735 msec
