
                                 *****************
                                 * O   R   C   A *
                                 *****************

                                            #,                                       
                                            ###                                      
                                            ####                                     
                                            #####                                    
                                            ######                                   
                                           ########,                                 
                                     ,,################,,,,,                         
                               ,,#################################,,                 
                          ,,##########################################,,             
                       ,#########################################, ''#####,          
                    ,#############################################,,   '####,        
                  ,##################################################,,,,####,       
                ,###########''''           ''''###############################       
              ,#####''   ,,,,##########,,,,          '''####'''          '####       
            ,##' ,,,,###########################,,,                        '##       
           ' ,,###''''                  '''############,,,                           
         ,,##''                                '''############,,,,        ,,,,,,###''
      ,#''                                            '''#######################'''  
     '                                                          ''''####''''         
             ,#######,   #######,   ,#######,      ##                                
            ,#'     '#,  ##    ##  ,#'     '#,    #''#        ,####,    ,#,          
            ##       ##  ##   ,#'  ##            #'  '#       #'       ,# #          
            ##       ##  #######   ##           ,######,      #####,      #          
            '#,     ,#'  ##    ##  '#,     ,#' ,#      #,     #,   #      #          
             '#######'   ##     ##  '#######'  #'      '#     '####' #    #          



                #########################################################
                #                        -***-                          #
                #          Department of theory and spectroscopy        #
                #                                                       #
                #                      Frank Neese                      #
                #                                                       #
                #     Directorship, Architecture, Infrastructure        #
                #                    SHARK, DRIVERS                     #
                #        Core code/Algorithms in most modules           #
                #                                                       #
                #        Max Planck Institute fuer Kohlenforschung      #
                #                Kaiser Wilhelm Platz 1                 #
                #                 D-45470 Muelheim/Ruhr                 #
                #                      Germany                          #
                #                                                       #
                #                  All rights reserved                  #
                #                        -***-                          #
                #########################################################


                         Program Version 6.1.0  -  RELEASE   -
                                (GIT: $679e74b$)
                          ($2025-06-10 18:02:51 +0200$)


 With contributions from (in alphabetic order):
[Max-Planck-Institut fuer Kohlenforschung]                               
  Daniel Aravena         : Magnetic Suceptibility                        
  Michael Atanasov       : Ab Initio Ligand Field Theory (pilot matlab implementation)
  Alexander A. Auer      : GIAO ZORA, VPT2 properties, NMR spectrum      
  Ute Becker             : All parallelization in ORCA, NUMFREQ, NUMCALC 
  Giovanni Bistoni       : ED, misc. LED, open-shell LED, HFLD           
  Dmytro Bykov           : pre 5.0 version of the SCF Hessian            
  Marcos Casanova-Páez   : Triplet and SCS-CIS(D). UHF-(DLPNO)-IP/EA/STEOM-CCSD. UHF-CVS-IP/STEOM-CCSD   
  Vijay G. Chilkuri      : MRCI spin determinant printing, contributions to CSF-ICE 
  Pauline Colinet        : FMM embedding                                 
  Dipayan Datta          : RHF DLPNO-CCSD density                        
  Achintya Kumar Dutta   : EOM-CC, STEOM-CC                              
  Nicolas Foglia         : Exact transition moments, OPA infrastructure, MCD improvements    
  Dmitry Ganyushin       : Spin-Orbit,Spin-Spin,Magnetic field MRCI      
  Miquel Garcia-Rates    : C-PCM and meta-GGA Hessian, CCSD/C-PCM, Gaussian charge scheme 
  Tiago L. C. Gouveia    : GS-ROHF, GS-ROCIS                             
  Yang Guo               : DLPNO-NEVPT2, F12-NEVPT2, CIM, IAO-localization        
  Andreas Hansen         : Spin unrestricted coupled pair/coupled cluster methods 
  Ingolf Harden          : AUTO-CI MPn and infrastructure                
  Benjamin Helmich-Paris : MC-RPA, TRAH-(SCF,CASSCF), AVAS, COSX integrals, SCF dyn. polar., MC-PDFT, srDFT 
  Lee Huntington         : MR-EOM, pCC                                   
  Robert Izsak           : Overlap fitted RIJCOSX, COSX-SCS-MP3, EOM     
  Riya Kayal             : Wick's Theorem for AUTO-CI, AUTO-CI UHF-CCSDT 
  Emily Kempfer          : AUTO-CI RHF CISDT and CCSDT, approximate NEVPT4
  Christian Kollmar      : KDIIS, OOCD, Brueckner-CCSD(T), CCSD density, CASPT2, CASPT2-K, improved NEVPT2 
  Axel Koslowski         : Symmetry handling                             
  Simone Kossmann        : meta-GGA functionals, TD-DFT gradient, OOMP2, (MP2 Hessian; deprecated post 5.0) 
  Lucas Lang             : DCDCAS, Hyperfine gauge corrections, ICE-SOC+SSC
  Marvin Lechner         : AUTO-CI (C++ implementation), FIC-MRCC        
  Spencer Leger          : CASSCF response                               
  Dagmar Lenk            : GEPOL surface, SMD, ORCA-2-JSON               
  Dimitrios Liakos       : Extrapolation schemes; Compound Job, Property file
  Dimitrios Manganas     : Further ROCIS development; embedding schemes. LFT, Crystal Embedding 
  Dimitrios Pantazis     : SARC Basis sets                               
  Anastasios Papadopoulos: AUTO-CI, single reference methods and gradients 
  Taras Petrenko         : pre 6.0 DFT Hessian and TD-DFT gradient,  ECA, NRVS 
  Petra Pikulova         : Analytic Raman intensities                    
  Peter Pinski           : DLPNO-MP2, DLPNO-MP2 Gradient                 
  Shashank Vittal Rao    : ES-AILFT, MagRelax                            
  Christoph Reimann      : Effective Core Potentials                     
  Marius Retegan         : Local ZFS, SOC                                
  Christoph Riplinger    : Optimizer, TS searches, QM/MM, DLPNO-CCSD(T), (RO)-DLPNO pert. Triples 
  Michael Roemelt        : Original ROCIS implementation, recursive CI coupling coefficients
  Masaaki Saitow         : Open-shell DLPNO-CCSD energy and density      
  Barbara Sandhoefer     : DKH picture change effects                    
  Yorick L. A. Schmerwitz: GMF and freeze-and-release deltaSCF, NEB S-IDPP initial path                    
  Kantharuban Sivalingam : CASSCF convergence/infrastructure, NEVPT2, NEVPT3, NEVPT4(SD), FIC-MRCI and CEPA variants
  Bernardo de Souza      : ESD, SOC TD-DFT                               
  Georgi L. Stoychev     : AutoAux, RI-MP2 NMR, DLPNO-MP2 response, X2C  
  Van Anh Tran           : RI-MP2 g-tensors                              
  Willem Van den Heuvel  : Paramagnetic NMR                              
  Zikuan Wang            : NOTCH, Electric field optimization            
  Frank Wennmohs         : Technical directorship and infrastructure     
  Hang Xu                : AUTO-CI-Response properties                   
                                                                         
[FACCTs GmbH]                                                            
  Markus Bursch, Nicolas Foglia, Miquel Garcia-Rates, Ingolf Harden, Hagen Neugebauer, Anastasios Papadopoulos, 
  Christoph Riplinger, Bernardo de Souza, Georgi L. Stoychev                                                    
                                                                 
  APM, various basis sets, CI-OPT, improved COSX, DLPNO-Multilevel,           
  DOCKER, DRACO, updates on ESD, Fragmentator, GOAT, IRC, LR-CPCM, L-BFGS, MBIS, meta-GGA TD-DFT gradient, ML-optimized integration grids, 
  MM, NACMEs, nearIR, NEB, NEB-TS, NL-DFT gradient (VV10), 2- and 3-layer-ONIOM, interface openCOSMO-RS, QMMM,   
  Crystal-QMMM, RESP, rigid body optimization, SF, symmetry and pop. for TD-DFT, various functionals, SOLVATOR                                   
                                                                         
[Other institutions]                                                     
  V. Asgeirsson          : NEB                                           
  Christoph Bannwarth    : sTDA-DFT, sTD-DFT, PBEh-3c, B97-3c, D3        
  Giovanni Bistoni       : ETS/NOCV, ADLD/ADEX, COVALED                  
  Martin Brehm           : Molecular dynamics                            
  Ronald Cardenas        : ETS/NOCV                                      
  Martina Colucci        : COVALED                                       
  Sebastian Ehlert       : rSCAN, r2SCAN, r2SCAN-3c, D4, dhf basis sets  
  Marvin Friede          : D4 for Fr, Ra, Ac-Lr                          
  Lars Goerigk           : TD-DFT with DH, B97 family of functionals     
  Stefan Grimme          : VdW corrections, initial TS optimization, DFT functionals, gCP, sTDA/sTD-DF 
  Waldemar Hujo          : DFT-NL                                        
  H. Jonsson             : NEB                                           
  Holger Kruse           : gCP                                           
  Marcel Mueller         : wB97X-3c, vDZP basis set                      
  Hagen Neugebauer       : wr2SCAN, Native XTB                           
  Gianluca Regni         : ADLD/ADEX                                     
  Tobias Risthaus        : pre 6.0 range-separated hybrid DFT and stability analysis
  Lukas Wittmann         : regularized MP2, r2SCAN double-hybrids, wr2SCAN        
                                                                         
We gratefully acknowledge several colleagues who have allowed us to      
interface, adapt or use parts of their codes:                            
  Ed Valeev, F. Pavosevic, A. Kumar             : LibInt (2-el integral package), F12 methods 
  Garnet Chan, S. Sharma, J. Yang, R. Olivares  : DMRG                   
  Ulf Ekstrom                                   : XCFun DFT Library      
  Mihaly Kallay                                 : mrcc  (arbitrary order and MRCC methods)
  Frank Weinhold                                : gennbo (NPA and NBO analysis)           
  Simon Mueller                                 : openCOSMO-RS                            
  Christopher J. Cramer and Donald G. Truhlar   : smd solvation model                     
  S Lehtola, MJT Oliveira, MAL Marques          : LibXC Library                           
  Liviu Ungur et al                             : ANISO software                          


 Your calculation uses the libint2 library for the computation of 2-el integrals
 For citations please refer to: http://libint.valeyev.net

 Your ORCA version has been built with support for libXC version: 7.0.0
 For citations please refer to: https://libxc.gitlab.io

 This ORCA versions uses:
   CBLAS   interface :  Fast vector & matrix operations
   LAPACKE interface :  Fast linear algebra routines
   SCALAPACK package :  Parallel linear algebra routines
   Shared memory     :  Shared parallel matrices
   BLAS/LAPACK       :  OpenBLAS 0.3.29  USE64BITINT DYNAMIC_ARCH NO_AFFINITY Cooperlake SINGLE_THREADED
        Core in use  :  Cooperlake
   Copyright (c) 2011-2014, The OpenBLAS Project


  ***********************************
  * Starting time: Fri Sep 12 21:25:58 2025
  * Host name:     zhoulab-2
  * Process ID:    1863402
  * Working dir.:  /data/home/grads/jianpengc/projects/materials/R_MetaSymbO/_mdopt/orca_sp
  ***********************************

NOTE: MaxCore=6000 MB was set to SCF,MP2,MDCI,CIPSI,MRCI,RASCI and CIS
      => If you want to overwrite this, your respective input block should be placed after the MaxCore statement
Your calculation utilizes the atom-pairwise dispersion correction
based on EEQ partial charges (D4)


================================================================================

----- Orbital basis set information -----
Your calculation utilizes the basis: def2-SVP
   F. Weigend and R. Ahlrichs, Phys. Chem. Chem. Phys. 7, 3297 (2005).

----- AuxJ basis set information -----
Your calculation utilizes the auxiliary basis: def2/J
   H-Rn: F. Weigend, Phys. Chem. Chem. Phys. 8, 1057 (2006).
   Fr-Lr: K. Eichkorn, F. Weigend, O. Treutler, R. Ahlrichs; Theor. Chem. Acc. 97, 119 (1997).

================================================================================
                                        WARNINGS
                       Please study these warnings very carefully!
================================================================================

WARNING: Old DensityContainer found on disk!
         Will remove this file - 
         If you want to keep old densities, please start your calculation with a different basename. 



WARNING: Found flag for RIJCOSX approximation but no HF exchange needed!
  ===> : RIJCOSX  will be disabled and Split-RI-J is turned on

================================================================================
                                       INPUT FILE
================================================================================
NAME = orca.inp
|  1> ! UKS PBE def2-SVP def2/J RIJCOSX TightSCF D4 EnGrad CHELPG 
|  2> %maxcore 6000
|  3> 
|  4> %pal
|  5>   nprocs 16
|  6> end
|  7> 
|  8> %scf
|  9>   MaxIter 50
| 10>   DIISStart 3
| 11>   SOSCFStart 8
| 12>   # 金属体系有时加点电子温度有利于收敛（单位 K）
| 13> end
| 14> 
| 15> %output
| 16>   PrintLevel Normal
| 17>   Print[ P_OrbEn ] 2
| 18>   Print[ P_Mulliken ] 1
| 19>   Print[ P_Loewdin ] 1
| 20>   Print[ P_Mayer ] 1
| 21>   Print[ P_Hirshfeld ] 1
| 22>   Print[ P_MBIS ] 1
| 23> end
| 24> 
| 25> %elprop
| 26>   Dipole true
| 27>   Quadrupole true
| 28>   Polar true
| 29> end
| 30>  
| 31> *xyz 0 2 
| 32> Al   0.5731808543205261 0.7138946652412415 0.234403595328331
| 33> Fe   -0.16298873722553253 0.17750133574008942 0.7479106187820435
| 34> Cr   0.5996357202529907 0.8169717192649841 0.9173805713653564
| 35> Ti   -0.027393057942390442 0.17479321360588074 0.04813595116138458
| 36> *
| 37> 
| 38>                          ****END OF INPUT****
================================================================================

                     *******************************
                     * Energy+Gradient Calculation *
                     *******************************

---------------------------------
CARTESIAN COORDINATES (ANGSTROEM)
---------------------------------
  Al     0.573181    0.713895    0.234404
  Fe    -0.162989    0.177501    0.747911
  Cr     0.599636    0.816972    0.917381
  Ti    -0.027393    0.174793    0.048136

----------------------------
CARTESIAN COORDINATES (A.U.)
----------------------------
  NO LB      ZA    FRAG     MASS         X           Y           Z
   0 Al   13.0000    0    26.982    1.083155    1.349065    0.442959
   1 Fe   26.0000    0    55.850   -0.308004    0.335429    1.413346
   2 Cr   24.0000    0    52.000    1.133147    1.543853    1.733598
   3 Ti   22.0000    0    47.900   -0.051765    0.330311    0.090964

--------------------------------
INTERNAL COORDINATES (ANGSTROEM)
--------------------------------
 Al     0   0   0     0.000000000000     0.00000000     0.00000000
 Fe     1   0   0     1.045635182359     0.00000000     0.00000000
 Cr     1   2   0     0.691217974878    67.55495718     0.00000000
 Ti     2   1   3     0.712795978951    52.11303758   182.29978174

---------------------------
INTERNAL COORDINATES (A.U.)
---------------------------
 Al     0   0   0     0.000000000000     0.00000000     0.00000000
 Fe     1   0   0     1.975964130651     0.00000000     0.00000000
 Cr     1   2   0     1.306212671363    67.55495718     0.00000000
 Ti     2   1   3     1.346989189579    52.11303758   182.29978174

---------------------
BASIS SET INFORMATION
---------------------
There are 4 groups of distinct atoms

 Group   1 Type Al  : 10s7p1d contracted to 4s3p1d pattern {5311/511/1}
 Group   2 Type Fe  : 14s9p5d1f contracted to 5s3p2d1f pattern {63311/531/41/1}
 Group   3 Type Cr  : 14s9p5d1f contracted to 5s3p2d1f pattern {63311/531/41/1}
 Group   4 Type Ti  : 14s9p5d1f contracted to 5s3p2d1f pattern {63311/531/41/1}

Atom   0Al   basis set group =>   1
Atom   1Fe   basis set group =>   2
Atom   2Cr   basis set group =>   3
Atom   3Ti   basis set group =>   4
---------------------------------
AUXILIARY/J BASIS SET INFORMATION
---------------------------------
There are 4 groups of distinct atoms

 Group   1 Type Al  : 14s5p5d2f1g contracted to 8s4p3d1f1g pattern {71111111/2111/311/2/1}
 Group   2 Type Fe  : 19s5p5d3f3g contracted to 8s5p5d2f3g pattern {121111111/11111/11111/21/111}
 Group   3 Type Cr  : 19s5p5d3f3g contracted to 8s5p5d2f3g pattern {121111111/11111/11111/21/111}
 Group   4 Type Ti  : 19s5p5d3f3g contracted to 8s5p5d2f3g pattern {121111111/11111/11111/21/111}

Atom   0Al   basis set group =>   1
Atom   1Fe   basis set group =>   2
Atom   2Cr   basis set group =>   3
Atom   3Ti   basis set group =>   4

Checking for AutoStart:
The File: orca.gbw exists
Trying to determine its content:
     ... Fine, the file contains calculation information
     ... Fine, the calculation information was read
     ... Fine, the file contains a basis set
     ... Fine, the basis set was read
     ... Fine, the file contains a geometry
     ... Fine, the geometry was read
     ... Fine, the file contains a set of orbitals
     ... Fine, the orbitals can be read
     => possible old guess file was deleted
     => GBW file was renamed to GES file
     => GES file is set as startup file
     => Guess is set to MORead
     ... now leaving AutoStart



           ************************************************************
           *        Program running with 16 parallel MPI-processes    *
           *              working on a common directory               *
           ************************************************************
------------------------------------------------------------------------------
                             ORCA STARTUP CALCULATIONS
                           -- RI-GTO INTEGRALS CHOSEN --
------------------------------------------------------------------------------
------------------------------------------------------------------------------
                   ___                                                        
                  /   \      - P O W E R E D   B Y -                         
                 /     \                                                     
                 |  |  |   _    _      __       _____    __    __             
                 |  |  |  | |  | |    /  \     |  _  \  |  |  /  |          
                  \  \/   | |  | |   /    \    | | | |  |  | /  /          
                 / \  \   | |__| |  /  /\  \   | |_| |  |  |/  /          
                |  |  |   |  __  | /  /__\  \  |    /   |      \           
                |  |  |   | |  | | |   __   |  |    \   |  |\   \          
                \     /   | |  | | |  |  |  |  | |\  \  |  | \   \       
                 \___/    |_|  |_| |__|  |__|  |_| \__\ |__|  \__/        
                                                                              
                      - O R C A' S   B I G   F R I E N D -                    
                                      &                                       
                       - I N T E G R A L  F E E D E R -                       
                                                                              
 v1 FN, 2020, v2 2021, v3 2022-2024                                           
------------------------------------------------------------------------------


----------------------
SHARK INTEGRAL PACKAGE
----------------------

Number of atoms                             ...      4
Number of basis functions                   ...    111
Number of shells                            ...     41
Maximum angular momentum                    ...      3
Integral batch strategy                     ... SHARK/LIBINT Hybrid
RI-J (if used) integral strategy            ... SPLIT-RIJ (Revised 2003 algorithm where possible)
Printlevel                                  ...      1
Contraction scheme used                     ... SEGMENTED contraction
Prescreening option                         ... SCHWARTZ
   Thresh                                   ... 2.500e-11
   Tcut                                     ... 2.500e-12
   Tpresel                                  ... 2.500e-12 
Coulomb Range Separation                    ... NOT USED
Exchange Range Separation                   ... NOT USED
Multipole approximations                    ... NOT USED
Finite Nucleus Model                        ... NOT USED
CABS basis                                  ... NOT available
Auxiliary Coulomb fitting basis             ... AVAILABLE
   # of basis functions in Aux-J            ...    318
   # of shells in Aux-J                     ...     86
   Maximum angular momentum in Aux-J        ...      4
Auxiliary J/K fitting basis                 ... NOT available
Auxiliary Correlation fitting basis         ... NOT available
Auxiliary 'external' fitting basis          ... NOT available

Checking pre-screening integrals            ... done (  0.0 sec) Dimension = 41
   => SHARK Basis and OBASIS are compatible. Storing Pre-screening
Shell pair information
Shell pair cut-off parameter TPreSel        ...   2.5e-12
Total number of shell pairs                 ...       861
Shell pairs after pre-screening             ...       854
Total number of primitive shell pairs       ...      5708
Primitive shell pairs kept                  ...      4907
          la=0 lb=0:    184 shell pairs
          la=1 lb=0:    227 shell pairs
          la=1 lb=1:     78 shell pairs
          la=2 lb=0:    133 shell pairs
          la=2 lb=1:     84 shell pairs
          la=2 lb=2:     28 shell pairs
          la=3 lb=0:     57 shell pairs
          la=3 lb=1:     36 shell pairs
          la=3 lb=2:     21 shell pairs
          la=3 lb=3:      6 shell pairs

Checking whether 4 symmetric matrices of dimension 111 fit in memory
:Max Core in MB      =   6000.00
 MB in use           =      4.90
 MB left             =   5995.10
 MB needed           =      0.19
 Data fit in memory  = YES
Calculating RI/J V-Matrix + Cholesky decomp.... done (  0.0 sec)
Calculating Nuclear repulsion               ... done (  0.0 sec) ENN=   1567.987826115894 Eh

Diagonalization of the overlap matrix:
Smallest eigenvalue                        ... 2.046e-04
Time for diagonalization                   ...    0.001 sec
Threshold for overlap eigenvalues          ... 1.000e-07
Number of eigenvalues below threshold      ... 0
Time for construction of square roots      ...    0.004 sec
Total time needed                          ...    0.011 sec

-------------------
DFT GRID GENERATION
-------------------

General Integration Accuracy     IntAcc      ... 4.388
Radial Grid Type                 RadialGrid  ... OptM3 with GC (2021)
Angular Grid (max. ang.)         AngularGrid ... 4 (Lebedev-302)
Angular grid pruning method      GridPruning ... 4 (adaptive)
Weight generation scheme         WeightScheme... mBecke (2022)
Basis function cutoff            BFCut       ... 1.0000e-11
Integration weight cutoff        WCut        ... 1.0000e-14
Partially contracted basis set               ... off
Rotationally invariant grid construction     ... off
Angular grids for H and He will be reduced by one unit
Core-polarized basis detected: some atoms will have their core
                               angular grid increased.

Total number of grid points                  ...    40437
Total number of batches                      ...      634
Average number of points per batch           ...       63
Average number of grid points per atom       ...    10109
Grids setup in   0.3 sec
Initializing property integral containers    ... done (  0.0 sec)

SHARK setup successfully completed in   0.4 seconds

Maximum memory used throughout the entire STARTUP-calculation: 13.9 MB


           ************************************************************
           *        Program running with 16 parallel MPI-processes    *
           *              working on a common directory               *
           ************************************************************
-------------------------------------------------------------------------------
                                 ORCA GUESS
                   Start orbitals & Density for SCF / CASSCF
-------------------------------------------------------------------------------

------------
SCF SETTINGS
------------
Hamiltonian:
 Density Functional     Method          .... DFT(GTOs)
 Exchange Functional    Exchange        .... PBE
   PBE kappa parameter   XKappa         ....  0.804000
   PBE mue parameter    XMuePBE         ....  0.219520
 Correlation Functional Correlation     .... PBE
   PBE beta parameter  CBetaPBE         ....  0.066725
 LDA part of GGA corr.  LDAOpt          .... PW91-LDA
 Gradients option       PostSCFGGA      .... off
   NL short-range parameter             ....  6.400000
 RI-approximation to the Coulomb term is turned on
   Number of AuxJ basis functions       .... 318


General Settings:
 Integral files         IntName         .... orca
 Hartree-Fock type      HFTyp           .... UHF
 Total Charge           Charge          ....    0
 Multiplicity           Mult            ....    2
 Number of Electrons    NEL             ....   85
 Basis Dimension        Dim             ....  111
 Nuclear Repulsion      ENuc            ....   1567.9878261159 Eh

Convergence Acceleration:
 AO-DIIS                CNVDIIS         .... on
   Start iteration      DIISMaxIt       ....    12
   Startup error        DIISStart       ....  3.000000
   # of expansion vecs  DIISMaxEq       ....     5
   Bias factor          DIISBfac        ....   1.050
   Max. coefficient     DIISMaxC        ....  10.000
 MO-DIIS                CNVKDIIS        .... off
 Trust-Rad. Augm. Hess. CNVTRAH         .... auto
   Auto Start mean grad. ratio tolernc. ....  1.125000
   Auto Start start iteration           ....     1
   Auto Start num. interpolation iter.  ....    10
   Max. Number of Micro iterations      ....    24
   Max. Number of Macro iterations      .... Maxiter - #DIIS iter
   Number of Davidson start vectors     ....     2
   Converg. threshold    (grad. norm)   ....   1.000e-05
   Grad. Scal. Fac. for Micro threshold ....   0.100
   Minimum threshold for Micro iter.    ....   1.000e-02
   NR start threshold (gradient norm)   ....   1.000e-04
   Initial trust radius                 ....   0.400
   Minimum AH scaling param. (alpha)    ....   1.000
   Maximum AH scaling param. (alpha)    .... 1000.000
   Quad. conv. algorithm                .... NR
   White noise on init. David. guess    .... on
   Maximum white noise                  ....   0.010
   Pseudo random numbers                .... off
   Inactive MOs                         .... canonical
   Orbital update algorithm             .... Taylor
   Preconditioner                       .... Diag
   Full preconditioner red. dimension   ....   250
 SOSCF                 CNVSOSCF           .... on
   Start iteration     SOSCFMaxIt         ....   150
   Startup grad/error  SOSCFStart         ....  8.000000
   Hessian update      SOSCFHessUp        .... L-BFGS
   Autom. constraints  SOSCFAutoConstrain .... off
 Level Shifting         CNVShift        .... on
   Level shift para.    LevelShift      ....    0.2500
   Turn off err/grad.   ShiftErr        ....    0.0010
 Zerner damping         CNVZerner       .... off
 Static damping         CNVDamp         .... on
   Fraction old density DampFac         ....    0.7000
   Max. Damping (<1)    DampMax         ....    0.9800
   Min. Damping (>=0)   DampMin         ....    0.0000
   Turn off err/grad.   DampErr         ....    0.1000

SCF Procedure:
 Maximum # iterations   MaxIter         ....    50
 SCF integral mode      SCFMode         .... Direct
   Integral package                     .... SHARK and LIBINT hybrid scheme
 Reset frequency        DirectResetFreq ....    20
 Integral Threshold     Thresh          ....  2.500e-11 Eh
 Primitive CutOff       TCut            ....  2.500e-12 Eh

Convergence Tolerance:
 Convergence Check Mode ConvCheckMode   .... Total+1el-Energy
 Convergence forced     ConvForced      .... 0
 Energy Change          TolE            ....  1.000e-08 Eh
 1-El. energy change                    ....  1.000e-05 Eh
 Orbital Gradient       TolG            ....  1.000e-05
 Orbital Rotation angle TolX            ....  1.000e-05
 DIIS Error             TolErr          ....  5.000e-07

---------------------
INITIAL GUESS: MOREAD
---------------------
Guess MOs are being read from file: orca.ges
Input Geometry matches current geometry (good)
Input basis set matches current basis set (good)
MOs were renormalized
MOs were reorthogonalized (Cholesky)
                      ------------------
                      INITIAL GUESS DONE (   0.0 sec)
                      ------------------
             **** ENERGY FILE WAS UPDATED (orca.en.tmp) ****
Finished Guess after   0.2 sec
Maximum memory used throughout the entire GUESS-calculation: 8.8 MB


           ************************************************************
           *        Program running with 16 parallel MPI-processes    *
           *              working on a common directory               *
           ************************************************************

-------------------------------------------------------------------------------------------
                                      ORCA LEAN-SCF
                              memory conserving SCF solver
-------------------------------------------------------------------------------------------

----------------------------------------D-I-I-S--------------------------------------------
Iteration    Energy (Eh)           Delta-E    RMSDP     MaxDP     DIISErr   Damp  Time(sec)
-------------------------------------------------------------------------------------------
               ***  Starting incremental Fock matrix formation  ***
                              *** Initializing SOSCF ***
---------------------------------------S-O-S-C-F--------------------------------------
Iteration    Energy (Eh)           Delta-E    RMSDP     MaxDP     MaxGrad    Time(sec)
--------------------------------------------------------------------------------------
    1    -3366.4572596647421960     0.00e+00  6.84e-07  5.17e-06  1.28e-07     0.4
               *** Restarting incremental Fock matrix formation ***
    2    -3366.4572596647385581     3.64e-12  5.37e-07  4.32e-06  3.21e-07     0.3
                  *** Gradient check signals convergence ***

               *****************************************************
               *                     SUCCESS                       *
               *           SCF CONVERGED AFTER   2 CYCLES          *
               *****************************************************

             **** ENERGY FILE WAS UPDATED (orca.en.tmp) ****

----------------
TOTAL SCF ENERGY
----------------

Total Energy       :      -3366.45725966671125 Eh          -91605.95919 eV

Components:
Nuclear Repulsion  :       1567.98782611589354 Eh           42667.11790 eV
Electronic Energy  :      -4934.44508578260502 Eh         -134273.07710 eV
One Electron Energy:      -7689.94811842738272 Eh         -209254.12658 eV
Two Electron Energy:       2755.50303264477725 Eh           74981.04948 eV

Virial components:
Potential Energy   :      -6841.27552858727631 Eh         -186160.57135 eV
Kinetic Energy     :       3474.81826892056506 Eh           94554.61216 eV
Virial Ratio       :          1.96881534489931

DFT components:
N(Alpha)           :       42.999880678524 electrons
N(Beta)            :       41.999878203661 electrons
N(Total)           :       84.999758882185 electrons
E(X)               :     -168.802049974591 Eh       
E(C)               :       -4.114100954401 Eh       
E(XC)              :     -172.916150928993 Eh       

---------------
SCF CONVERGENCE
---------------

  Last Energy change         ...   -3.6380e-12  Tolerance :   1.0000e-08
  Last MAX-Density change    ...    4.3166e-06  Tolerance :   1.0000e-07
  Last RMS-Density change    ...    5.3737e-07  Tolerance :   5.0000e-09
  Last DIIS Error            ...    1.1714e-07  Tolerance :   5.0000e-07
  Last Orbital Gradient      ...    3.2113e-07  Tolerance :   1.0000e-05
  Last Orbital Rotation      ...    2.0258e-06  Tolerance :   1.0000e-05


----------------------
UHF SPIN CONTAMINATION
----------------------

Warning: in a DFT calculation there is little theoretical justification to 
         calculate <S**2> as in Hartree-Fock theory. We will do it anyways
         but you should keep in mind that the values have only limited relevance

Expectation value of <S**2>     :     0.762365
Ideal value S*(S+1) for S=0.5   :     0.750000
Deviation                       :     0.012365

----------------
ORBITAL ENERGIES
----------------
                 SPIN UP ORBITALS
  NO   OCC          E(Eh)            E(eV) 
   0   1.0000    -255.235750     -6945.3179 
   1   1.0000    -214.580325     -5839.0275 
   2   1.0000    -178.109958     -4846.6183 
   3   1.0000     -57.101555     -1553.8123 
   4   1.0000     -30.213613      -822.1542 
   5   1.0000     -26.121112      -710.7916 
   6   1.0000     -26.091028      -709.9730 
   7   1.0000     -26.038473      -708.5429 
   8   1.0000     -24.498128      -666.6279 
   9   1.0000     -20.848717      -567.3224 
  10   1.0000     -20.792774      -565.8001 
  11   1.0000     -20.743788      -564.4672 
  12   1.0000     -20.121316      -547.5289 
  13   1.0000     -16.830570      -457.9831 
  14   1.0000     -16.769941      -456.3333 
  15   1.0000     -16.695641      -454.3115 
  16   1.0000      -7.083881      -192.7622 
  17   1.0000      -5.605051      -152.5212 
  18   1.0000      -5.024515      -136.7240 
  19   1.0000      -4.552870      -123.8899 
  20   1.0000      -4.441996      -120.8729 
  21   1.0000      -3.875388      -105.4547 
  22   1.0000      -3.563731       -96.9740 
  23   1.0000      -3.258117       -88.6579 
  24   1.0000      -2.446944       -66.5847 
  25   1.0000      -2.186178       -59.4889 
  26   1.0000      -2.173919       -59.1553 
  27   1.0000      -1.880938       -51.1829 
  28   1.0000      -1.633486       -44.4494 
  29   1.0000      -1.456449       -39.6320 
  30   1.0000      -1.366711       -37.1901 
  31   1.0000      -1.264771       -34.4162 
  32   1.0000      -1.201689       -32.6996 
  33   1.0000      -0.980927       -26.6924 
  34   1.0000      -0.978328       -26.6217 
  35   1.0000      -0.800117       -21.7723 
  36   1.0000      -0.660071       -17.9614 
  37   1.0000      -0.439192       -11.9510 
  38   1.0000      -0.364429        -9.9166 
  39   1.0000      -0.347683        -9.4609 
  40   1.0000      -0.288222        -7.8429 
  41   1.0000      -0.160110        -4.3568 
  42   1.0000      -0.155147        -4.2218 
  43   0.0000      -0.129705        -3.5295 
  44   0.0000      -0.083976        -2.2851 
  45   0.0000      -0.071659        -1.9500 
  46   0.0000      -0.016973        -0.4619 
  47   0.0000       0.016827         0.4579 
  48   0.0000       0.026939         0.7330 
  49   0.0000       0.046713         1.2711 
  50   0.0000       0.048649         1.3238 
  51   0.0000       0.053552         1.4572 
  52   0.0000       0.075897         2.0653 
  53   0.0000       0.087485         2.3806 
  54   0.0000       0.123839         3.3698 
  55   0.0000       0.132711         3.6112 
  56   0.0000       0.191779         5.2186 
  57   0.0000       0.227196         6.1823 
  58   0.0000       0.254391         6.9223 
  59   0.0000       0.276025         7.5110 
  60   0.0000       0.300277         8.1710 
  61   0.0000       0.309178         8.4132 
  62   0.0000       0.313862         8.5406 
  63   0.0000       0.350851         9.5471 
  64   0.0000       0.383477        10.4349 
  65   0.0000       0.429667        11.6918 
  66   0.0000       0.478902        13.0316 
  67   0.0000       0.522289        14.2122 
  68   0.0000       0.594943        16.1892 
  69   0.0000       0.615653        16.7528 
  70   0.0000       0.630639        17.1606 
  71   0.0000       0.641472        17.4553 
  72   0.0000       0.646989        17.6055 
  73   0.0000       0.712328        19.3834 
  74   0.0000       0.759200        20.6589 
  75   0.0000       0.765530        20.8311 
  76   0.0000       0.805824        21.9276 
  77   0.0000       0.838855        22.8264 
  78   0.0000       0.902020        24.5452 
  79   0.0000       0.924997        25.1704 
  80   0.0000       0.997301        27.1379 
  81   0.0000       1.112938        30.2846 
  82   0.0000       1.122046        30.5324 
  83   0.0000       1.144162        31.1342 
  84   0.0000       1.181761        32.1574 
  85   0.0000       1.201843        32.7038 
  86   0.0000       1.312393        35.7120 
  87   0.0000       1.465602        39.8810 
  88   0.0000       1.483141        40.3583 
  89   0.0000       1.600955        43.5642 
  90   0.0000       1.626499        44.2593 
  91   0.0000       1.758112        47.8407 
  92   0.0000       1.970992        53.6334 
  93   0.0000       2.040963        55.5374 
  94   0.0000       2.057710        55.9931 
  95   0.0000       2.278871        62.0112 
  96   0.0000       2.629995        71.5658 
  97   0.0000       2.643146        71.9237 
  98   0.0000       2.873454        78.1907 
  99   0.0000       2.888193        78.5917 
 100   0.0000       3.087106        84.0044 
 101   0.0000       3.312503        90.1378 
 102   0.0000       3.815996       103.8385 
 103   0.0000       3.824234       104.0627 
 104   0.0000       3.992230       108.6341 
 105   0.0000       4.112841       111.9161 
 106   0.0000       4.261601       115.9641 
 107   0.0000       4.288375       116.6926 
 108   0.0000       4.510682       122.7419 
 109   0.0000       4.779683       130.0618 
 110   0.0000       5.195357       141.3728 

                 SPIN DOWN ORBITALS
  NO   OCC          E(Eh)            E(eV) 
   0   1.0000    -255.235143     -6945.3013 
   1   1.0000    -214.579502     -5839.0051 
   2   1.0000    -178.108951     -4846.5910 
   3   1.0000     -57.101635     -1553.8145 
   4   1.0000     -30.212697      -822.1293 
   5   1.0000     -26.120352      -710.7709 
   6   1.0000     -26.090499      -709.9586 
   7   1.0000     -26.036652      -708.4933 
   8   1.0000     -24.497292      -666.6052 
   9   1.0000     -20.848322      -567.3117 
  10   1.0000     -20.791948      -565.7777 
  11   1.0000     -20.741774      -564.4124 
  12   1.0000     -20.119875      -547.4896 
  13   1.0000     -16.829205      -457.9459 
  14   1.0000     -16.769195      -456.3130 
  15   1.0000     -16.692591      -454.2285 
  16   1.0000      -7.083693      -192.7571 
  17   1.0000      -5.604656      -152.5105 
  18   1.0000      -5.023978      -136.7094 
  19   1.0000      -4.552230      -123.8725 
  20   1.0000      -4.441817      -120.8680 
  21   1.0000      -3.874614      -105.4336 
  22   1.0000      -3.561945       -96.9255 
  23   1.0000      -3.256716       -88.6197 
  24   1.0000      -2.444259       -66.5117 
  25   1.0000      -2.182759       -59.3959 
  26   1.0000      -2.170885       -59.0728 
  27   1.0000      -1.874922       -51.0192 
  28   1.0000      -1.627779       -44.2941 
  29   1.0000      -1.454938       -39.5909 
  30   1.0000      -1.363022       -37.0897 
  31   1.0000      -1.260378       -34.2966 
  32   1.0000      -1.198714       -32.6187 
  33   1.0000      -0.977279       -26.5931 
  34   1.0000      -0.970431       -26.4068 
  35   1.0000      -0.796356       -21.6699 
  36   1.0000      -0.657814       -17.9000 
  37   1.0000      -0.433616       -11.7993 
  38   1.0000      -0.359179        -9.7737 
  39   1.0000      -0.342396        -9.3171 
  40   1.0000      -0.277578        -7.5533 
  41   1.0000      -0.148559        -4.0425 
  42   0.0000      -0.123195        -3.3523 
  43   0.0000      -0.120473        -3.2782 
  44   0.0000      -0.078971        -2.1489 
  45   0.0000      -0.066150        -1.8000 
  46   0.0000      -0.013509        -0.3676 
  47   0.0000       0.025082         0.6825 
  48   0.0000       0.032539         0.8854 
  49   0.0000       0.048851         1.3293 
  50   0.0000       0.058732         1.5982 
  51   0.0000       0.068820         1.8727 
  52   0.0000       0.081927         2.2293 
  53   0.0000       0.103873         2.8265 
  54   0.0000       0.129271         3.5176 
  55   0.0000       0.152104         4.1390 
  56   0.0000       0.195859         5.3296 
  57   0.0000       0.232712         6.3324 
  58   0.0000       0.267701         7.2845 
  59   0.0000       0.281071         7.6483 
  60   0.0000       0.304396         8.2830 
  61   0.0000       0.319857         8.7038 
  62   0.0000       0.321586         8.7508 
  63   0.0000       0.356144         9.6912 
  64   0.0000       0.396703        10.7948 
  65   0.0000       0.446361        12.1461 
  66   0.0000       0.496501        13.5105 
  67   0.0000       0.535273        14.5655 
  68   0.0000       0.601699        16.3731 
  69   0.0000       0.635281        17.2869 
  70   0.0000       0.635891        17.3035 
  71   0.0000       0.648177        17.6378 
  72   0.0000       0.652027        17.7426 
  73   0.0000       0.722238        19.6531 
  74   0.0000       0.763512        20.7762 
  75   0.0000       0.780260        21.2319 
  76   0.0000       0.810519        22.0553 
  77   0.0000       0.850331        23.1387 
  78   0.0000       0.907491        24.6941 
  79   0.0000       0.934984        25.4422 
  80   0.0000       1.006608        27.3912 
  81   0.0000       1.115688        30.3594 
  82   0.0000       1.128716        30.7139 
  83   0.0000       1.153648        31.3924 
  84   0.0000       1.191178        32.4136 
  85   0.0000       1.209473        32.9114 
  86   0.0000       1.317232        35.8437 
  87   0.0000       1.469817        39.9957 
  88   0.0000       1.492478        40.6124 
  89   0.0000       1.607624        43.7457 
  90   0.0000       1.630384        44.3650 
  91   0.0000       1.763533        47.9882 
  92   0.0000       1.975416        53.7538 
  93   0.0000       2.047359        55.7115 
  94   0.0000       2.063657        56.1549 
  95   0.0000       2.282354        62.1060 
  96   0.0000       2.632899        71.6448 
  97   0.0000       2.646829        72.0239 
  98   0.0000       2.876154        78.2641 
  99   0.0000       2.891939        78.6937 
 100   0.0000       3.090190        84.0883 
 101   0.0000       3.313417        90.1627 
 102   0.0000       3.817813       103.8880 
 103   0.0000       3.828416       104.1765 
 104   0.0000       3.996341       108.7460 
 105   0.0000       4.115919       111.9999 
 106   0.0000       4.264229       116.0356 
 107   0.0000       4.289664       116.7277 
 108   0.0000       4.514141       122.8360 
 109   0.0000       4.781338       130.1068 
 110   0.0000       5.196085       141.3927 

                    ********************************
                    * MULLIKEN POPULATION ANALYSIS *
                    ********************************

--------------------------------------------
MULLIKEN ATOMIC CHARGES AND SPIN POPULATIONS
--------------------------------------------
   0 Al:    1.104734    0.261891
   1 Fe:   -0.912037    0.030163
   2 Cr:   -0.733300    0.259723
   3 Ti:    0.540603    0.448223
Sum of atomic charges         :    0.0000000
Sum of atomic spin populations:    1.0000000

-----------------------------------------------------
MULLIKEN REDUCED ORBITAL CHARGES AND SPIN POPULATIONS
-----------------------------------------------------
CHARGE
  0 Als       :     5.409754  s :     5.409754
      pz      :     1.821257  p :     6.327065
      px      :     2.198863
      py      :     2.306945
      dz2     :     0.009051  d :     0.158448
      dxz     :     0.017457
      dyz     :     0.030856
      dx2y2   :     0.069439
      dxy     :     0.031645

  1 Fes       :     7.610770  s :     7.610770
      pz      :     3.770123  p :    11.995436
      px      :     4.110802
      py      :     4.114511
      dz2     :     1.814462  d :     6.930682
      dxz     :     1.315426
      dyz     :     1.302055
      dx2y2   :     1.109411
      dxy     :     1.389328
      f0      :     0.038241  f :     0.375150
      f+1     :     0.065070
      f-1     :     0.069630
      f+2     :     0.081558
      f-2     :     0.052055
      f+3     :     0.037557
      f-3     :     0.031038

  2 Crs       :     5.882755  s :     5.882755
      pz      :     3.891055  p :    12.021728
      px      :     4.082634
      py      :     4.048039
      dz2     :     0.754041  d :     6.648119
      dxz     :     1.790941
      dyz     :     1.872348
      dx2y2   :     1.331884
      dxy     :     0.898905
      f0      :     0.054059  f :     0.180698
      f+1     :    -0.001068
      f-1     :     0.003041
      f+2     :     0.027921
      f-2     :     0.032853
      f+3     :     0.029862
      f-3     :     0.034029

  3 Tis       :     5.397219  s :     5.397219
      pz      :     3.505333  p :    11.022498
      px      :     3.718912
      py      :     3.798253
      dz2     :     1.206260  d :     5.014121
      dxz     :     0.914579
      dyz     :     0.820260
      dx2y2   :     1.362707
      dxy     :     0.710315
      f0      :     0.016116  f :     0.025558
      f+1     :    -0.002327
      f-1     :    -0.000546
      f+2     :     0.021074
      f-2     :     0.009891
      f+3     :    -0.017877
      f-3     :    -0.000773


SPIN
  0 Als       :    -0.178664  s :    -0.178664
      pz      :    -0.023931  p :     0.429647
      px      :     0.221024
      py      :     0.232555
      dz2     :     0.002528  d :     0.010908
      dxz     :     0.000034
      dyz     :    -0.000029
      dx2y2   :     0.000299
      dxy     :     0.008076

  1 Fes       :    -0.069281  s :    -0.069281
      pz      :    -0.024056  p :     0.073633
      px      :     0.019708
      py      :     0.077982
      dz2     :     0.001256  d :     0.025982
      dxz     :     0.008478
      dyz     :     0.008369
      dx2y2   :     0.004455
      dxy     :     0.003424
      f0      :    -0.000084  f :    -0.000171
      f+1     :    -0.000150
      f-1     :     0.000014
      f+2     :    -0.000437
      f-2     :     0.000270
      f+3     :     0.000276
      f-3     :    -0.000059

  2 Crs       :     0.136278  s :     0.136278
      pz      :    -0.009514  p :     0.075294
      px      :     0.021229
      py      :     0.063578
      dz2     :     0.001845  d :     0.047242
      dxz     :     0.001901
      dyz     :     0.002861
      dx2y2   :     0.040237
      dxy     :     0.000398
      f0      :    -0.000035  f :     0.000909
      f+1     :     0.000020
      f-1     :     0.000013
      f+2     :    -0.000142
      f-2     :     0.000210
      f+3     :     0.000636
      f-3     :     0.000208

  3 Tis       :     0.178391  s :     0.178391
      pz      :     0.043535  p :     0.176452
      px      :     0.039083
      py      :     0.093834
      dz2     :     0.003106  d :     0.092591
      dxz     :     0.025465
      dyz     :     0.045735
      dx2y2   :     0.015731
      dxy     :     0.002555
      f0      :     0.000007  f :     0.000789
      f+1     :    -0.000052
      f-1     :    -0.000145
      f+2     :     0.000315
      f-2     :     0.000309
      f+3     :     0.000046
      f-3     :     0.000309


------------------------
MULLIKEN OVERLAP CHARGES
------------------------
B(  0-Al,  1-Fe) :  -4.4548 B(  0-Al,  2-Cr) :  -9.9091 B(  0-Al,  3-Ti) : -13.7185 
B(  1-Fe,  2-Cr) :  -0.4926 B(  1-Fe,  3-Ti) :  -3.3501 B(  2-Cr,  3-Ti) :  -0.8117 



                     *******************************
                     * LOEWDIN POPULATION ANALYSIS *
                     *******************************

-------------------------------------------
LOEWDIN ATOMIC CHARGES AND SPIN POPULATIONS
-------------------------------------------
   0 Al:    0.999255    0.285835
   1 Fe:    0.297409    0.162886
   2 Cr:   -0.816214    0.247843
   3 Ti:   -0.480450    0.303435

----------------------------------------------------
LOEWDIN REDUCED ORBITAL CHARGES AND SPIN POPULATIONS
----------------------------------------------------
CHARGE
  0 Als       :     3.872653  s :     3.872653
      pz      :     2.176317  p :     6.948357
      px      :     2.413525
      py      :     2.358515
      dz2     :     0.285701  d :     1.179735
      dxz     :     0.224160
      dyz     :     0.231198
      dx2y2   :     0.233709
      dxy     :     0.204968

  1 Fes       :     5.728795  s :     5.728795
      pz      :     3.747933  p :    11.309781
      px      :     3.804323
      py      :     3.757525
      dz2     :     1.961608  d :     7.714937
      dxz     :     1.553603
      dyz     :     1.527632
      dx2y2   :     1.195876
      dxy     :     1.476218
      f0      :     0.140582  f :     0.949077
      f+1     :     0.218958
      f-1     :     0.189432
      f+2     :     0.149195
      f-2     :     0.102925
      f+3     :     0.074519
      f-3     :     0.073468

  2 Crs       :     5.590754  s :     5.590754
      pz      :     3.740520  p :    11.440224
      px      :     3.855410
      py      :     3.844293
      dz2     :     1.028362  d :     6.932159
      dxz     :     1.763535
      dyz     :     1.847831
      dx2y2   :     1.268414
      dxy     :     1.024017
      f0      :     0.206412  f :     0.853076
      f+1     :     0.145958
      f-1     :     0.143181
      f+2     :     0.060449
      f-2     :     0.112307
      f+3     :     0.092105
      f-3     :     0.092665

  3 Tis       :     5.320114  s :     5.320114
      pz      :     3.364721  p :    10.587692
      px      :     3.633510
      py      :     3.589462
      dz2     :     1.415959  d :     5.577808
      dxz     :     1.098630
      dyz     :     1.007153
      dx2y2   :     1.235142
      dxy     :     0.820924
      f0      :     0.178224  f :     0.994836
      f+1     :     0.192977
      f-1     :     0.184491
      f+2     :     0.138346
      f-2     :     0.139786
      f+3     :     0.069084
      f-3     :     0.091929


SPIN
  0 Als       :    -0.000119  s :    -0.000119
      pz      :     0.007007  p :     0.275886
      px      :     0.119917
      py      :     0.148963
      dz2     :     0.001570  d :     0.010068
      dxz     :    -0.000208
      dyz     :     0.000231
      dx2y2   :     0.001580
      dxy     :     0.006895

  1 Fes       :    -0.016977  s :    -0.016977
      pz      :    -0.000939  p :     0.152467
      px      :     0.056606
      py      :     0.096800
      dz2     :     0.001126  d :     0.021430
      dxz     :     0.006809
      dyz     :     0.007402
      dx2y2   :     0.001657
      dxy     :     0.004437
      f0      :     0.000416  f :     0.005966
      f+1     :     0.001023
      f-1     :     0.002365
      f+2     :     0.000716
      f-2     :     0.000946
      f+3     :     0.000521
      f-3     :    -0.000021

  2 Crs       :     0.009864  s :     0.009864
      pz      :     0.008561  p :     0.188476
      px      :     0.078114
      py      :     0.101801
      dz2     :     0.000262  d :     0.045148
      dxz     :     0.003857
      dyz     :     0.003158
      dx2y2   :     0.034080
      dxy     :     0.003792
      f0      :    -0.000026  f :     0.004354
      f+1     :    -0.000017
      f-1     :    -0.000002
      f+2     :     0.000033
      f-2     :     0.000384
      f+3     :     0.003313
      f-3     :     0.000670

  3 Tis       :    -0.000021  s :    -0.000021
      pz      :     0.008749  p :     0.207728
      px      :     0.082056
      py      :     0.116923
      dz2     :     0.003326  d :     0.082259
      dxz     :     0.019061
      dyz     :     0.034996
      dx2y2   :     0.020896
      dxy     :     0.003980
      f0      :     0.001108  f :     0.013469
      f+1     :     0.003588
      f-1     :     0.006065
      f+2     :     0.000269
      f-2     :     0.000923
      f+3     :     0.000740
      f-3     :     0.000775


---------------------------------
LOEWDIN BOND ORDERS (THRESH 0.050000)
---------------------------------
B(  0-Al,  1-Fe) :   1.3264 B(  0-Al,  2-Cr) :   3.3873 B(  0-Al,  3-Ti) :   2.5978 
B(  1-Fe,  2-Cr) :   3.3888 B(  1-Fe,  3-Ti) :   6.1825 B(  2-Cr,  3-Ti) :   2.1943 


------------------------------------------
LOEWDIN REDUCED ORBITAL POPULATIONS PER MO
-------------------------------------------
THRESHOLD FOR PRINTING IS 0.1%%
SPIN UP
                      0         1         2         3         4         5   
                 -255.23575 -214.58032 -178.10996 -57.10155 -30.21361 -26.12111
                   1.00000   1.00000   1.00000   1.00000   1.00000   1.00000
                  --------  --------  --------  --------  --------  --------
 0 Al s               0.0       0.0       0.0      98.7       0.1       0.0
 0 Al px              0.0       0.0       0.0       0.0       0.1       0.0
 0 Al dxz             0.0       0.0       0.0       0.0       0.1       0.0
 0 Al dxy             0.0       0.0       0.0       0.0       0.1       0.0
 1 Fe s              99.9       0.0       0.0       0.0      94.0       0.7
 1 Fe pz              0.0       0.0       0.0       0.0       0.7      94.9
 1 Fe px              0.0       0.0       0.0       0.0       0.1       0.2
 1 Fe py              0.0       0.0       0.0       0.0       0.0       4.0
 2 Cr s               0.0      99.9       0.0       0.0       0.0       0.0
 2 Cr dz2             0.0       0.0       0.0       0.2       0.1       0.0
 2 Cr dxy             0.0       0.0       0.0       0.0       0.2       0.0
 2 Cr f0              0.0       0.0       0.0       0.6       0.0       0.0
 2 Cr f-3             0.0       0.0       0.0       0.0       0.2       0.0
 3 Ti s               0.0       0.0      99.9       0.0       0.1       0.0
 3 Ti pz              0.0       0.0       0.0       0.0       0.7       0.0
 3 Ti dz2             0.0       0.0       0.0       0.0       1.4       0.0
 3 Ti dxz             0.0       0.0       0.0       0.0       0.2       0.0
 3 Ti f0              0.0       0.0       0.0       0.0       0.9       0.0
 3 Ti f+1             0.0       0.0       0.0       0.0       0.2       0.0

                      6         7         8         9        10        11   
                 -26.09103 -26.03847 -24.49813 -20.84872 -20.79277 -20.74379
                   1.00000   1.00000   1.00000   1.00000   1.00000   1.00000
                  --------  --------  --------  --------  --------  --------
 0 Al s               0.0       0.0       0.1       0.0       0.0       0.0
 0 Al pz              0.0       0.0       0.6       0.1       0.0       0.0
 0 Al dz2             0.0       0.0       0.4       0.0       0.0       0.0
 1 Fe s               0.3       0.0       0.0       0.0       0.0       0.0
 1 Fe pz              2.4       1.7       0.0       0.0       0.0       0.0
 1 Fe px             59.6      39.9       0.1       0.0       0.0       0.0
 1 Fe py             37.5      58.4       0.0       0.0       0.0       0.0
 1 Fe dz2             0.0       0.0       0.2       0.0       0.0       0.0
 1 Fe dxy             0.0       0.0       0.5       0.0       0.0       0.0
 2 Cr s               0.0       0.0      95.5       1.2       0.1       0.0
 2 Cr pz              0.0       0.0       1.0      96.6       1.3       0.9
 2 Cr px              0.0       0.0       0.1       0.1      60.8      39.0
 2 Cr py              0.0       0.0       0.1       2.1      37.7      60.1
 3 Ti dxz             0.0       0.0       0.1       0.0       0.0       0.0
 3 Ti dyz             0.0       0.0       0.1       0.0       0.0       0.0
 3 Ti f+1             0.0       0.0       0.1       0.0       0.0       0.0
 3 Ti f-1             0.0       0.0       0.1       0.0       0.0       0.0
 3 Ti f-2             0.0       0.0       0.3       0.0       0.0       0.0

                     12        13        14        15        16        17   
                 -20.12132 -16.83057 -16.76994 -16.69564  -7.08388  -5.60505
                   1.00000   1.00000   1.00000   1.00000   1.00000   1.00000
                  --------  --------  --------  --------  --------  --------
 0 Al s               0.2       0.0       0.0       0.0      30.5       2.9
 0 Al pz              0.0       0.0       0.0       0.0      12.1       9.3
 0 Al px              0.4       0.0       0.0       0.0       2.7       8.3
 0 Al py              0.3       0.0       0.0       0.0       1.0       7.3
 0 Al dz2             0.2       0.0       0.0       0.0       0.0       0.3
 0 Al dxz             0.0       0.0       0.0       0.0       0.1       0.4
 0 Al dyz             0.0       0.0       0.0       0.0       0.0       0.3
 0 Al dxy             0.6       0.0       0.0       0.0       0.0       0.6
 1 Fe s               0.3       0.1       0.0       0.0       2.2      14.5
 1 Fe pz              1.2       0.2       0.0       0.0       0.8       9.2
 1 Fe px              0.1       0.0       0.0       0.0       2.0       2.2
 1 Fe py              0.0       0.0       0.0       0.0       1.0       0.6
 1 Fe dz2             2.7       0.3       0.0       0.0       0.3       1.0
 1 Fe dxz             0.3       0.0       0.1       0.1       1.1       0.8
 1 Fe dyz             0.0       0.0       0.1       0.1       0.7       0.2
 1 Fe dx2y2           0.0       0.0       0.0       0.0       0.2       0.0
 1 Fe dxy             0.0       0.0       0.0       0.0       1.5       0.3
 1 Fe f0              3.4       0.3       0.1       0.1       0.3       0.1
 1 Fe f+1             1.0       0.0       0.3       0.2       0.0       0.1
 1 Fe f-1             0.0       0.0       0.3       0.4       0.0       0.1
 1 Fe f-2             0.0       0.0       0.0       0.0       0.5       0.0
 1 Fe f-3             0.0       0.0       0.0       0.0       0.3       0.0
 2 Cr s               0.0       0.0       0.0       0.0       6.2       1.2
 2 Cr pz              0.1       0.0       0.0       0.0      10.6       3.6
 2 Cr px              0.0       0.0       0.0       0.0       0.7       1.4
 2 Cr py              0.0       0.0       0.0       0.0       1.1       0.6
 2 Cr dz2             0.0       0.0       0.0       0.0       4.8       4.0
 2 Cr dxz             0.2       0.0       0.0       0.0       0.7       1.3
 2 Cr dyz             0.2       0.0       0.0       0.0       1.4       0.6
 2 Cr dxy             0.0       0.0       0.0       0.0       0.3       1.2
 2 Cr f0              0.0       0.0       0.0       0.0       1.0       1.7
 2 Cr f+1             0.0       0.0       0.0       0.0       0.3       0.2
 2 Cr f-1             0.0       0.0       0.0       0.0       0.7       0.0
 2 Cr f-2             0.0       0.0       0.0       0.0       0.2       1.0
 2 Cr f+3             0.0       0.0       0.0       0.0       0.0       0.2
 2 Cr f-3             0.0       0.0       0.0       0.0       0.0       0.3
 3 Ti s              86.3       1.9       1.2       0.0       2.6       8.2
 3 Ti pz              2.2      72.7      21.7       1.7       2.1      10.3
 3 Ti px              0.0      19.2      38.9      40.8       1.5       0.0
 3 Ti py              0.1       5.1      37.2      56.6       1.6       0.5
 3 Ti dz2             0.0       0.0       0.0       0.0       0.0       3.7
 3 Ti dxz             0.0       0.0       0.0       0.0       1.2       0.1
 3 Ti dyz             0.0       0.0       0.0       0.0       1.3       0.2
 3 Ti dxy             0.0       0.0       0.0       0.0       1.9       0.1
 3 Ti f0              0.0       0.0       0.0       0.0       0.3       0.6
 3 Ti f-1             0.0       0.0       0.0       0.0       0.0       0.1
 3 Ti f-2             0.0       0.0       0.0       0.0       1.0       0.2
 3 Ti f+3             0.0       0.0       0.0       0.0       0.3       0.1
 3 Ti f-3             0.0       0.0       0.0       0.0       0.5       0.1

                     18        19        20        21        22        23   
                  -5.02451  -4.55287  -4.44200  -3.87539  -3.56373  -3.25812
                   1.00000   1.00000   1.00000   1.00000   1.00000   1.00000
                  --------  --------  --------  --------  --------  --------
 0 Al s               6.5       0.0      13.5       2.4       0.0       0.8
 0 Al pz             23.6       0.5      17.0      15.2       0.1       1.0
 0 Al px             11.0      29.7      10.7      10.1       3.0       4.5
 0 Al py             12.1      39.9       6.3       4.7       3.8       2.8
 0 Al dz2             0.0       0.0       0.4       0.7       0.0       0.1
 0 Al dxz             0.2       0.0       0.1       0.7       0.0       0.7
 0 Al dyz             0.1       0.1       0.1       0.3       0.1       0.3
 0 Al dx2y2           0.0       0.1       0.0       0.0       1.4       0.1
 0 Al dxy             0.2       0.0       0.3       0.0       0.1       0.4
 1 Fe s               8.5       0.0       1.6       3.4       0.0      15.2
 1 Fe pz              3.8       0.0       8.6      12.3       0.5      13.4
 1 Fe px              0.2       0.6       2.9       8.9      17.3      14.9
 1 Fe py              0.0       1.2       3.1       8.1      27.2       6.8
 1 Fe dz2             0.6       0.0       2.9       3.4       0.4       0.6
 1 Fe dxz             0.8       0.2       0.3       0.1       3.2       8.1
 1 Fe dyz             0.5       0.5       0.3       0.0       5.8       4.5
 1 Fe dx2y2           0.0       1.2       0.1       0.1       1.3       0.2
 1 Fe dxy             0.0       0.1       1.3       1.4       0.4       0.1
 1 Fe f0              0.0       0.0       0.0       0.1       0.1       0.1
 1 Fe f+1             0.3       0.0       0.0       0.0       0.3       0.6
 1 Fe f-1             0.2       0.0       0.0       0.0       0.7       0.5
 1 Fe f+2             0.0       0.2       0.0       0.0       0.2       0.1
 1 Fe f-2             0.2       0.0       0.0       0.3       0.1       0.1
 1 Fe f+3             0.0       0.4       0.1       0.0       0.0       0.0
 1 Fe f-3             0.0       0.0       0.3       0.0       0.0       0.1
 2 Cr s               2.0       0.0       0.6       4.1       0.0       1.7
 2 Cr pz              1.1       0.0       0.7       0.5       0.0       0.2
 2 Cr px              0.0       2.2       3.1       2.7       0.1       1.7
 2 Cr py              0.0       2.8       2.2       1.6       0.1       1.0
 2 Cr dz2             0.6       0.1       2.2       2.1       0.0       0.6
 2 Cr dxz             0.1       2.8       1.5       0.6       0.1       0.0
 2 Cr dyz             0.1       3.4       0.9       0.5       0.2       0.0
 2 Cr dx2y2           0.0       0.6       0.0       0.2       1.7       0.0
 2 Cr dxy             0.3       0.0       0.7       2.3       0.1       1.0
 2 Cr f0              0.4       0.2       1.6       0.1       0.0       0.3
 2 Cr f+1             0.8       2.0       0.4       2.2       0.2       0.0
 2 Cr f-1             0.9       2.2       0.1       1.4       0.5       0.0
 2 Cr f+2             0.0       0.6       0.0       0.0       0.4       0.0
 2 Cr f-2             0.0       0.0       0.1       0.0       0.0       0.9
 2 Cr f+3             0.0       0.1       0.0       0.1       1.2       0.0
 2 Cr f-3             0.1       0.1       0.1       0.6       0.4       0.0
 3 Ti s               0.1       0.0       3.5       1.0       0.0       0.7
 3 Ti pz              4.7       0.1       1.6       0.7       0.2       1.2
 3 Ti px              5.3       0.8       0.4       1.4       4.4       1.7
 3 Ti py              2.6       1.2       0.1       0.7       6.6       1.4
 3 Ti dz2             7.3       0.1       0.5       0.4       0.6       1.8
 3 Ti dxz             0.5       0.5       2.8       1.1       4.9       4.0
 3 Ti dyz             0.0       0.5       1.5       0.8       7.9       2.9
 3 Ti dx2y2           0.0       2.2       0.1       0.0       0.1       0.2
 3 Ti dxy             2.9       0.0       1.0       0.2       0.3       0.8
 3 Ti f0              0.1       0.0       0.1       1.5       0.3       0.4
 3 Ti f+1             0.1       0.0       2.1       0.1       1.2       1.2
 3 Ti f-1             0.3       0.0       1.8       0.4       2.1       0.3
 3 Ti f+2             0.0       0.6       0.0       0.1       0.0       0.1
 3 Ti f-2             0.1       0.0       0.1       0.1       0.2       0.2
 3 Ti f+3             0.0       1.3       0.2       0.0       0.1       0.0
 3 Ti f-3             0.2       0.7       0.6       0.1       0.0       0.0

                     24        25        26        27        28        29   
                  -2.44694  -2.18618  -2.17392  -1.88094  -1.63349  -1.45645
                   1.00000   1.00000   1.00000   1.00000   1.00000   1.00000
                  --------  --------  --------  --------  --------  --------
 0 Al s               1.4       0.1       2.8       3.2       0.0       1.1
 0 Al pz              2.8       0.1       3.6       3.3       0.1       1.7
 0 Al px              0.5       2.6       0.2       3.6       1.8       0.8
 0 Al py              0.5       2.9       0.7       3.6       2.9       0.2
 0 Al dz2             2.4       0.2       0.3       1.1       0.0       1.0
 0 Al dxz             0.9       2.0       0.2       1.2       0.0       0.1
 0 Al dyz             1.2       2.0       1.1       0.7       0.0       0.0
 0 Al dx2y2           0.0       0.3       0.0       0.0       0.3       0.0
 0 Al dxy             0.0       0.0       0.1       1.6       0.0       0.0
 1 Fe s               8.0       0.1       3.1       1.2       0.0       0.2
 1 Fe pz             10.8       0.3       5.1       3.0       0.5       3.4
 1 Fe px              1.1       0.1       1.1       1.1      11.0       3.2
 1 Fe py              0.5       0.3       0.4       1.0      13.7       4.4
 1 Fe dz2             0.7       0.4       0.2       4.7       1.8      40.5
 1 Fe dxz             5.1       2.8       8.0       0.5       7.4       0.6
 1 Fe dyz             4.7       6.5       3.4       0.0      12.9       5.8
 1 Fe dx2y2           0.0       7.2       0.2       0.1       6.0       0.2
 1 Fe dxy             3.0       0.3       4.4       2.2       1.0       4.4
 1 Fe f0              0.7       0.1       0.3       0.0       0.2       0.4
 1 Fe f+1             0.5       0.2       2.0       0.0       0.4       0.5
 1 Fe f-1             0.5       1.6       1.0       0.0       1.3       0.1
 1 Fe f+2             0.1       0.2       0.1       0.0       0.7       0.0
 1 Fe f-2             0.6       0.1       0.0       0.3       0.2       0.1
 1 Fe f+3             0.1       1.4       0.0       0.0       0.3       0.0
 1 Fe f-3             0.2       0.3       0.7       0.1       0.0       0.0
 2 Cr s              33.4       0.3       8.5       1.1       0.0       0.6
 2 Cr pz              5.5       0.8       1.0       2.6       0.0       6.5
 2 Cr px              0.1      27.9      13.6       0.5       2.8       0.3
 2 Cr py              0.2      23.6      23.2       0.7       4.5       0.2
 2 Cr dz2             1.7       0.0       0.5       0.2       0.0       7.2
 2 Cr dxz             0.0       0.8       0.9       1.2       0.0       4.8
 2 Cr dyz             0.2       0.2       1.3       1.1       0.2       1.2
 2 Cr dx2y2           0.0       2.6       0.1       0.0       0.2       0.2
 2 Cr dxy             0.8       0.1       0.5       0.0       0.1       0.3
 2 Cr f0              0.2       0.0       0.4       0.1       0.0       2.5
 2 Cr f+1             0.2       0.3       0.0       0.1       0.0       0.0
 2 Cr f-1             0.0       0.4       0.0       0.1       0.1       0.1
 2 Cr f+2             0.0       0.0       0.0       0.0       0.4       0.1
 2 Cr f-2             0.0       0.0       0.0       0.0       0.1       0.5
 2 Cr f+3             0.1       0.2       0.0       0.0       0.4       0.0
 2 Cr f-3             0.3       0.0       0.0       0.0       0.0       0.3
 3 Ti s               1.5       0.0       0.7      34.3       0.0       0.6
 3 Ti pz              0.5       0.1       0.7      16.9       0.4       0.2
 3 Ti px              1.0       1.6       4.8       0.2       7.7       0.3
 3 Ti py              0.7       4.8       1.7       0.1      11.3       0.0
 3 Ti dz2             0.8       0.1       0.2       3.1       0.1       1.9
 3 Ti dxz             2.1       0.3       0.5       0.4       0.2       0.5
 3 Ti dyz             1.3       0.3       0.3       0.1       0.7       0.2
 3 Ti dx2y2           0.1       0.3       0.1       0.1       3.9       0.0
 3 Ti dxy             0.4       0.0       0.8       3.0       0.2       0.3
 3 Ti f0              0.6       0.1       0.0       0.0       0.3       1.8
 3 Ti f+1             1.2       0.6       0.4       0.4       0.6       0.0
 3 Ti f-1             0.5       0.6       0.1       0.1       1.6       0.3
 3 Ti f+2             0.0       1.9       0.0       0.0       1.4       0.0
 3 Ti f-2             0.3       0.0       0.0       0.4       0.3       0.3
 3 Ti f+3             0.0       0.0       0.0       0.2       0.0       0.0
 3 Ti f-3             0.0       0.0       0.0       0.2       0.0       0.0

                     30        31        32        33        34        35   
                  -1.36671  -1.26477  -1.20169  -0.98093  -0.97833  -0.80012
                   1.00000   1.00000   1.00000   1.00000   1.00000   1.00000
                  --------  --------  --------  --------  --------  --------
 0 Al s               0.0       0.7       0.5       0.6       1.1       0.9
 0 Al pz              0.0       0.7       0.7       0.8       0.5       2.1
 0 Al px              0.1       1.7       2.1       1.8       1.5       0.2
 0 Al py              0.2       0.9       1.8       2.8       1.6       0.2
 0 Al dz2             0.0       0.2       1.1       0.3       0.3       1.0
 0 Al dxz             0.4       1.4       0.1       0.2       0.0       0.1
 0 Al dyz             0.4       1.2       0.2       0.0       0.0       0.4
 0 Al dx2y2           0.7       0.0       0.0       2.5       2.1       0.0
 0 Al dxy             0.0       1.8       0.3       1.0       0.7       0.8
 1 Fe s               0.0       0.6       0.3       0.1       0.2       1.5
 1 Fe pz              0.0       0.8       0.2       0.1       0.1       3.3
 1 Fe px              0.2       0.9       5.8       1.1       1.3       0.2
 1 Fe py              0.1       1.0       3.8       1.9       0.9       0.0
 1 Fe dz2             0.4       3.2       2.6       0.0       2.9      17.7
 1 Fe dxz             3.9       0.4      12.4       5.4       5.4       5.6
 1 Fe dyz             3.0       2.4       3.0      11.6       4.0       0.8
 1 Fe dx2y2          33.6       0.9       1.1       3.5       1.9       0.1
 1 Fe dxy             0.4      14.4      25.9       0.5       0.7       0.0
 1 Fe f0              0.0       0.0       0.0       0.1       0.1       0.0
 1 Fe f+1             0.2       0.1       0.7       0.0       0.1       0.6
 1 Fe f-1             0.1       0.3       0.2       0.0       0.0       0.5
 1 Fe f+2             1.6       0.1       0.1       0.1       0.1       0.0
 1 Fe f-2             0.0       1.2       0.1       0.1       0.1       0.1
 1 Fe f+3             0.2       0.0       0.1       0.0       0.0       0.0
 1 Fe f-3             0.0       0.2       0.3       0.0       0.0       0.0
 2 Cr s               0.0       0.4       0.3       0.3       0.6       0.4
 2 Cr pz              0.0       9.7      11.1       4.7       8.4       7.9
 2 Cr px              7.3      10.6       2.5       1.3       1.0       1.2
 2 Cr py              8.0       5.4       1.4       1.0       2.3       1.3
 2 Cr dz2             0.1       3.7       4.9       2.3       2.8       8.7
 2 Cr dxz             0.1       0.7       0.0       1.0       0.6       0.4
 2 Cr dyz             0.9       0.5       0.5       0.6       2.5       0.7
 2 Cr dx2y2          12.3       0.6       0.0       1.0       0.6       0.7
 2 Cr dxy             0.5      12.8       0.1       1.8       1.8      16.2
 2 Cr f0              0.0       0.1       0.1       0.2       0.3       0.2
 2 Cr f+1             0.0       0.2       0.1       0.0       0.0       0.2
 2 Cr f-1             0.1       0.1       0.2       0.0       0.1       0.0
 2 Cr f+2             1.0       0.0       0.0       0.2       0.0       0.1
 2 Cr f-2             0.0       0.3       0.3       0.1       0.3       1.2
 2 Cr f+3             1.3       0.5       0.0       0.1       0.0       0.1
 2 Cr f-3             0.6       1.3       0.0       0.0       0.0       0.1
 3 Ti s               0.0       0.3       1.9       0.1       0.3       0.6
 3 Ti pz              0.0       2.4       3.8       1.9       0.6       0.2
 3 Ti px              0.0       1.0       1.1       0.2      25.7       7.3
 3 Ti py              0.2       1.1       0.3      24.3       0.1       4.9
 3 Ti dz2             0.0       0.8       3.2       6.0       3.0       0.0
 3 Ti dxz             0.0       0.3       0.6       0.2      20.8       6.2
 3 Ti dyz             0.5       0.2       0.6      17.2       0.1       4.7
 3 Ti dx2y2          19.2       0.7       0.0       0.3       0.8       0.1
 3 Ti dxy             0.9       9.8       1.3       0.1       0.8       0.3
 3 Ti f0              0.0       0.4       0.2       0.0       0.1       0.0
 3 Ti f+1             0.1       0.0       0.4       0.0       0.0       0.0
 3 Ti f-1             0.0       0.2       0.0       0.1       0.0       0.0
 3 Ti f+2             0.9       0.0       0.1       0.5       0.2       0.0
 3 Ti f-2             0.0       0.7       1.6       0.0       0.0       0.0
 3 Ti f+3             0.2       0.1       0.0       0.0       0.2       0.0
 3 Ti f-3             0.0       0.1       0.1       0.1       0.1       0.0

                     36        37        38        39        40        41   
                  -0.66007  -0.43919  -0.36443  -0.34768  -0.28822  -0.16011
                   1.00000   1.00000   1.00000   1.00000   1.00000   1.00000
                  --------  --------  --------  --------  --------  --------
 0 Al s               1.3       0.0       4.9       1.5      17.0       0.0
 0 Al pz              1.8       0.0       0.5       0.3       3.9       0.2
 0 Al px              0.2       1.7       2.6       2.2       3.7      10.8
 0 Al py              0.2       2.2       1.9       3.9       1.8      15.8
 0 Al dz2             3.1       0.0       0.3       0.0       0.3       0.0
 0 Al dxz             0.6       0.2       0.0       0.3       0.5       0.0
 0 Al dyz             1.3       0.1       0.0       0.8       0.4       0.0
 0 Al dx2y2           0.0       3.9       0.0       0.1       0.0       0.1
 0 Al dxy             0.0       0.2       0.8       0.1       0.5       0.0
 1 Fe s               0.7       0.0       1.0       0.4       9.1       0.1
 1 Fe pz              0.2       0.0       1.5       0.2       1.3       0.3
 1 Fe px              0.6       0.7       1.3       0.7       0.5       6.0
 1 Fe py              0.3       0.9       1.1       0.6       0.2      10.9
 1 Fe dz2             0.7       0.1       5.8       0.9       2.8       0.0
 1 Fe dxz             0.1       0.5       2.1       0.7       1.0       0.7
 1 Fe dyz             1.0       0.6       0.3       2.9       0.2       0.8
 1 Fe dx2y2           0.2       1.2       0.1       0.4       0.1       0.2
 1 Fe dxy             7.7       0.0       2.3       0.4       0.2       0.1
 1 Fe f0              0.1       0.0       0.2       0.2       0.0       0.0
 1 Fe f+1             0.9       0.1       1.0       0.0       0.5       0.1
 1 Fe f-1             1.0       0.0       0.0       0.3       0.1       0.2
 1 Fe f+2             0.0       2.4       0.1       1.2       0.1       0.1
 1 Fe f-2             0.2       0.0       0.2       0.0       0.4       0.0
 1 Fe f+3             0.0       0.7       0.0       0.0       0.1       0.0
 1 Fe f-3             0.1       0.5       0.0       0.1       0.1       0.0
 2 Cr s               0.3       0.0       2.4       0.8      14.0       0.0
 2 Cr pz              0.3       0.0       1.1       0.4       2.6       0.2
 2 Cr px              1.1       1.1       0.8       1.3       0.2       6.9
 2 Cr py              0.7       1.2       1.8       0.5       0.1      10.5
 2 Cr dz2             0.7       0.2       0.6       1.9       0.7       0.0
 2 Cr dxz            15.2       4.5       1.6      38.0       9.4       0.7
 2 Cr dyz             9.2       1.6      34.8      24.7       4.0       0.4
 2 Cr dx2y2           0.4      37.2       0.2       2.4       0.1       3.9
 2 Cr dxy             0.2       1.1       2.9       4.0       1.1       0.5
 2 Cr f0              0.1       0.0       0.0       0.0       0.2       0.0
 2 Cr f-2             0.0       0.0       0.2       0.1       0.1       0.0
 2 Cr f+3             0.0       0.0       0.0       0.0       0.0       0.4
 3 Ti s               1.4       0.0       1.0       0.4      11.8       0.1
 3 Ti pz             12.5       0.0       2.1       0.5       0.3       0.2
 3 Ti px              2.4       0.5       2.2       0.1       0.8       7.7
 3 Ti py              3.5       0.8       1.0       1.1       0.6      12.5
 3 Ti dz2            24.9       0.0       6.8       1.3       2.6       0.2
 3 Ti dxz             1.2       2.3       0.6       0.0       0.3       1.9
 3 Ti dyz             0.4       0.6       1.8       1.6       0.8       3.8
 3 Ti dx2y2           0.0      30.8       0.0       1.4       0.2       2.1
 3 Ti dxy             0.1       0.8       8.8       0.8       4.8       0.0
 3 Ti f0              0.5       0.0       0.3       0.1       0.0       0.1
 3 Ti f+1             0.0       0.0       0.1       0.0       0.0       0.3
 3 Ti f-1             0.0       0.0       0.0       0.0       0.0       0.6
 3 Ti f+2             0.1       0.8       0.1       0.0       0.0       0.0
 3 Ti f-2             0.8       0.0       0.0       0.0       0.3       0.1
 3 Ti f+3             0.2       0.1       0.0       0.1       0.1       0.0
 3 Ti f-3             1.0       0.0       0.3       0.0       0.2       0.0

                     42        43        44        45        46        47   
                  -0.15515  -0.12971  -0.08398  -0.07166  -0.01697   0.01683
[...]

------------------------------------------------------------------------------
                         ORCA PROPERTY INTEGRAL CALCULATIONS
------------------------------------------------------------------------------

GBWName                                   ... orca.gbw
Number of atoms                           ...      4
Number of basis functions                 ...    111
Max core memory                           ...   6000 MB

Dipole integrals                          ... YES
Quadrupole integrals                      ... YES
Linear momentum integrals                 ...  NO
Angular momentum integrals                ...  NO
Higher moments length integrals           ...  NO
Higher moments velocity integrals         ...  NO
Kinetic energy integrals                  ...  NO
GIAO right hand sides                     ...  NO
GIAO dipole derivative integrals          ...  NO
SOC integrals                             ...  NO
EPR diamagnetic integrals (GIAO)          ...  NO
EPR gauge integrals                       ...  NO
Field gradient integrals                  ...  NO (   0 nuclei)
Spin-dipole/Fermi contact integrals       ...  NO (   0 nuclei)
Contact density integrals                 ...  NO (   0 nuclei)
Nucleus-orbit integrals                   ...  NO (   0 nuclei)
Geometric perturbations                   ...  NO (   4 nuclei)

Choice of electric origin   ... Center of mass
Position of electric origin ... (  0.3747,  0.8276,  1.0146) 
Choice of magnetic origin   ... GIAO
Position of magnetic origin ... (  0.0000,  0.0000,  0.0000) 

Calculating integrals                     ... Electric Dipole (Length)     done (  0.0 sec)
Calculating integrals                     ... Electric Quadrupole (Length) done (  0.0 sec)

Property integrals calculated in   0.0 sec

Maximum memory used throughout the entire PROPINT-calculation: 9.2 MB


-------------------------------------------------------------------------------
                          DFT DISPERSION CORRECTION                            
                                                                               
                                DFTD4 V3.4.0                                   
-------------------------------------------------------------------------------
The PBE functional is recognized
Active option DFTDOPT                   ...         5   

-------------------------   ----------------
Dispersion correction           -0.006851242
-------------------------   ----------------


-------------------------   --------------------
FINAL SINGLE POINT ENERGY     -3366.464110908287
-------------------------   --------------------



           ************************************************************
           *        Program running with 16 parallel MPI-processes    *
           *              working on a common directory               *
           ************************************************************
------------------------------------------------------------------------------
                         ORCA SCF GRADIENT CALCULATION
------------------------------------------------------------------------------

Nuc. rep. gradient        (SHARK) ... done (  0.0 sec)
HCore & Overlap gradient  (SHARK) ... done (  0.0 sec)
Split-RIJ-J gradient      (SHARK) ... done (  0.1 sec)
XC gradient                       ... done (  0.1 sec)
Dispersion correction             ... done (  0.0 sec)

-------------------
DISPERSION GRADIENT
-------------------

   1   Al  :   -0.000016452    0.000031543    0.000211660
   2   Fe  :   -0.000104541    0.000025594    0.000591822
   3   Cr  :    0.000127125    0.000090922   -0.000020072
   4   Ti  :   -0.000006132   -0.000148060   -0.000783411

Difference to translation invariance:
           :    0.0000000000    0.0000000000    0.0000000000

Difference to rotation invariance:
           :    0.0000000000   -0.0000000000   -0.0000000000

Norm of the Dispersion gradient    ...    0.0010336469
RMS gradient                       ...    0.0002983882
MAX gradient                       ...    0.0007834110

------------------
CARTESIAN GRADIENT
------------------

   1   Al  :  -10.128964453   -5.757087739   24.185580522
   2   Fe  :   13.798416333    5.810100712  -33.612032902
   3   Cr  :   -7.372999398   -9.430088144  -28.261257276
   4   Ti  :    3.703547517    9.377075171   37.687709656

Difference to translation invariance:
           :   -0.0000000000    0.0000000000    0.0000000001

Difference to rotation invariance:
           :    0.0044132193   -0.0039868164   -0.0006888580

Norm of the Cartesian gradient     ...   67.3691339721
RMS gradient                       ...   19.4477938169
MAX gradient                       ...   37.6877096562

-------
TIMINGS
-------

Total SCF gradient time     ....        0.240 sec

Densities                   ....       0.000 sec  (  0.1%)
One electron gradient       ....       0.009 sec  (  3.6%)
RI-J Coulomb gradient       ....       0.138 sec  ( 57.3%)
XC gradient                 ....       0.071 sec  ( 29.8%)

Maximum memory used throughout the entire SCFGRAD-calculation: 27.5 MB


           ************************************************************
           *        Program running with 16 parallel MPI-processes    *
           *              working on a common directory               *
           ************************************************************
------------------------------------------------------------------------------
                            ORCA SCF RESPONSE CALCULATION
------------------------------------------------------------------------------

GBWName                                 ... orca.gbw
Number of atoms                         ...      4
Number of basis functions               ...    111
Max core memory                         ...   6000 MB

Electric field perturbation             ... YES
Quadrupolar field perturbation          ...  NO
Magnetic field perturbation (no GIAO)   ...  NO
Magnetic field perturbation (with GIAO) ...  NO
Linear momentum (velocity) perturbation ...  NO
Spin-orbit coupling perturbation        ...  NO
Choice of electric origin               ... Center of mass
Position of electric origin             ...     0.374689     0.827641     1.014554
Choice of magnetic origin               ... GIAO
Position of magnetic origin             ...     0.000000     0.000000     0.000000
Nuclear geometric perturbations         ...  NO (  12 perturbations)
Nucleus-orbit perturbations             ...  NO (   0 perturbations)
Spin-dipole/Fermi contact perturbations ...  NO (   0 perturbations)

Total number of real perturbations      ...      3
Total number of imaginary perturbations ...      0
Total number of triplet perturbations   ...      0
Total number of SOC perturbations       ...      0

Using XC Grid                  ... (orca.grid_cpscf.tmp) 
Recalculating density on grid  ... (orca.grho_cpscf0.tmp) done
Calculating the xc-kernel      ... (orca.fxc_cpscf0.tmp) done

                                **********************
                                * REAL PERTURBATIONS *
                                **********************



-------------------
SHARK CP-SCF DRIVER
-------------------

Dimension of the orbital basis          ...    111
Dimension of the CPSCF-problem          ...   5822
Number of operators                     ...      2
Max. number of iterations               ...    128
Convergence Tolerance                   ... 1.0e-04
Number of perturbations                 ...      3
Perturbation type                       ... REAL

----------------------------
POPLE LINEAR EQUATION SOLVER
----------------------------

  ITERATION   0:   ||err||_max =   9.7718e+01 (   0.2 sec   0/  3 done)
  ITERATION   1:   ||err||_max =   4.5091e+00 (   0.1 sec   0/  3 done)
  ITERATION   2:   ||err||_max =   2.7800e+00 (   0.1 sec   0/  3 done)
  ITERATION   3:   ||err||_max =   1.4490e+00 (   0.1 sec   0/  3 done)
  ITERATION   4:   ||err||_max =   8.3824e-01 (   0.1 sec   0/  3 done)
  ITERATION   5:   ||err||_max =   4.3740e-01 (   0.1 sec   0/  3 done)
  ITERATION   6:   ||err||_max =   3.1715e-01 (   0.1 sec   0/  3 done)
  ITERATION   7:   ||err||_max =   1.3799e-01 (   0.2 sec   0/  3 done)
  ITERATION   8:   ||err||_max =   5.2515e-02 (   0.1 sec   0/  3 done)
  ITERATION   9:   ||err||_max =   2.7919e-02 (   0.1 sec   0/  3 done)
  ITERATION  10:   ||err||_max =   1.0482e-02 (   0.2 sec   0/  3 done)
  ITERATION  11:   ||err||_max =   4.3767e-03 (   0.1 sec   0/  3 done)
  ITERATION  12:   ||err||_max =   1.3083e-03 (   0.2 sec   0/  3 done)
  ITERATION  13:   ||err||_max =   4.2780e-04 (   0.2 sec   0/  3 done)
  ITERATION  14:   ||err||_max =   1.5428e-04 (   0.1 sec   2/  3 done)
  ITERATION  15:   ||err||_max =   4.4774e-05 (   0.1 sec   3/  3 done)

CP-SCF equations solved in   2.6 sec
Response densities calculated in   0.0 sec

Maximum memory used throughout the entire SCFRESP-calculation: 8.5 MB


           ************************************************************
           *        Program running with 16 parallel MPI-processes    *
           *              working on a common directory               *
           ************************************************************

------------------------------------------------------------------------------
                              ORCA PROPERTY CALCULATIONS
------------------------------------------------------------------------------

GBWName                                 ... orca.gbw
Number of atoms                         ...      4
Number of basis functions               ...    111
Max core memory                         ...   6000 MB

Electric properties:
Dipole moment                           ... YES
Quadrupole moment                       ... YES
Static polarizability (Dipole/Dipole)   ... YES
Static polarizability (Dipole/Quad.)    ...  NO
Static polarizability (Quad./Quad.)     ...  NO
Static polarizability (Velocity)        ...  NO
Static hyperpolarizability              ...  NO

Atomic electric properties:
Dipole moment                           ...  NO
Quadrupole moment                       ...  NO
Static polarizability                   ...  NO

Choice of electric origin               ... Center of mass
Position of electric origin             ...     0.374689     0.827641     1.014554

General magnetic properties:
Magnetizability                         ...  NO

EPR properties:
g-Tensor (aka g-matrix)                 ...  NO
Zero-Field splitting spin-orbit         ...  NO
Zero-field splitting spin-spin          ...  NO
Hyperfine couplings                     ...  NO (   0 nuclei)
Quadrupole couplings                    ...  NO (   0 nuclei)
Contact density                         ...  NO (   0 nuclei)

NMR properties:
Chemical shifts                         ...  NO (   0 nuclei)
Spin-rotation constants                 ...  NO (   0 nuclei)
Spin-spin couplings                     ...  NO (   0 nuclei,    0 pairs)

Choice of magnetic origin               ... GIAO
Position of magnetic origin             ...     0.000000     0.000000     0.000000

Properties with geometric perturbations:
SCF Hessian                             ...  NO
IR spectrum                             ...  NO
VCD spectrum                            ...  NO
X-ray spectroscopy properties:
SCF XES/XAS/RIXS spectra                ...  NO

SCF SOC stabilization energy            ...  NO
Diagonal Born-Oppenheimer correction    ...  NO

-------------
DIPOLE MOMENT
-------------

Method             : SCF
Type of density    : Electron Density
Multiplicity       :   2
Irrep              :   0
Energy             : -3366.4572596667112521 Eh
Basis              : AO
                                X                 Y                 Z
Electronic contribution:      0.208068055       0.068715356      -0.577754824
Nuclear contribution   :      0.280999805       0.228856428      -0.124106148
                        -----------------------------------------
Total Dipole Moment    :      0.489067860       0.297571783      -0.701860971
                        -----------------------------------------
Magnitude (a.u.)       :      0.905729077
Magnitude (Debye)      :      2.302180357



--------------------
Rotational spectrum 
--------------------
 
Rotational constants in cm-1:             0.882763             0.388751             0.269944 
Rotational constants in MHz :         26464.555631         11654.476265          8092.710187 

Dipole components along the rotational axes: 
x,y,z [a.u.] :     0.178117    -0.888042    -0.000388 
x,y,z [Debye]:     0.452739    -2.257224    -0.000987 

 

Dipole moment calculation done in   0.0 sec 

-----------------
QUADRUPOLE MOMENT
-----------------

Method             : SCF
Type of density    : Electron Density
Multiplicity       :   2
Irrep              :   0
Energy             : -3366.4572596667112521 Eh
Basis              : AO

                XX              YY              ZZ              XY              XZ              YZ
  NUC       36.450034399    27.586010374    39.557293848    31.242270491     9.410882191    13.486823876
  EL       -77.236654562   -67.578279916   -77.353134798   -31.220975843    -5.753658583   -10.176941642
  TOT      -40.786620163   -39.992269542   -37.795840949     0.021294648     3.657223607     3.309882234 (a.u.)
           -54.859399021   -53.790970270   -50.836698695     0.028642029     4.919090829     4.451904803 (Buckingham)

diagonalized tensor:
           -44.230089768   -40.354620094   -33.990020793 (a.u.)
           -59.490983406   -54.278344154   -45.717740425 (Buckingham)
           -18.985882233    -3.347964476    22.333846710 (traceless form in Buckingham)

            -0.641118420    -0.637620991     0.427090908
            -0.470386456     0.766208089     0.437791899
             0.606385812    -0.079778672     0.791158398
        
Isotropic quadrupole :   -39.524910218

Quadrupole moment calculation done in   0.0 sec (  0.0 sec for integrals)


---------------------------------------------------
STATIC POLARIZABILITY TENSOR (Dipole/Dipole)
---------------------------------------------------

Method             : SCF
Type of density    : Electron Density
Type of derivative : Electric Field (Direction=X)
Multiplicity       :   2
Irrep              :   0
Basis              : AO

The raw cartesian tensor (atomic units):
      83.389426264        10.632566231         4.857848943  
      10.632566231        80.192789907         6.184895168  
       4.857848943         6.184895168        77.374195531  
diagonalized tensor: 
      70.488710146        74.675077570        95.792623986  

Orientation: 
       0.519277867         0.514038629         0.682725995  
      -0.784707540        -0.029635066         0.619157363  
       0.338503432        -0.857254951         0.387981154  

Isotropic polarizability :  80.31880


Polarizability tensor calculation done in   0.0 sec 

Maximum memory used throughout the entire PROP-calculation: 5.8 MB

--------------------------------
SUGGESTED CITATIONS FOR THIS RUN
--------------------------------

Below you find a list of papers that are relevant to this ORCA run
We neither can nor want to force you to cite these papers, but we appreciate if you do
You receive ORCA, which is the product of decades of hard work by many enthusiastic individuals, for free
The only thing we kindly ask in return is that you cite our papers,
We deeply appreciate it, if you show your appreciation for ORCA by not just citing the generic ORCA reference.

Please note that relegating all ORCA citations to the supporting information does *not* help us.
SI sections are not indexed - citations you put there will not count into any citation statistics
But we need these citations in order to attract the funding resources that allow us to do what we are doing

Therefore, if you are a happy ORCA user, please consider citing a few of the papers listed below in the main body of your paper

In addition to the list printed below, the program has created the file orca.bibtex that contains the list in bibtex format
You can import this file easily into all common literature databanks and citation aid programs


List of essential papers. We consider these as the minimum necessary citations

  1. Neese, F.
     Software update: the ORCA program system, version 6.0
     WIRES Comput. Molec. Sci. 2025 15(1), e70019
     doi.org/10.1002/wcms.7019

List of papers to cite with high priority. The work reported in these papers was absolutely
necessary for this run to complete.
Our perspective: the developers of density functionals and basis sets usually get cited in chemistry papers
Good! But without the algorithms to do something with them, the functionals or basis sets would not do anything.
Hence, in our opinion, the algorithm design and method developments papers are equally worthy of getting cited

  1. Neese, F.
     An improvement of the resolution of the identity approximation for the formation of the Coulomb matrix
     J. Comp. Chem. 2003 24(14), 1740-1747
     doi.org/10.1002/jcc.10318
  2. Caldeweyher, E.; Bannwarth, C.; Grimme, S.
     Extension of the D3 dispersion coefficient model
     J. Chem. Phys. 2017 147 , 034112
     doi.org/10.1063/1.4993215
  3. Caldeweyher, E.; Ehlert, S.; Hansen, A.; Neugebauer, H.; Spicher, S.; Bannwarth, C.; Grimme, S.
     A generally applicable atomic-charge dependent London dispersion correction
     J. Chem. Phys. 2019 150 , 154122
     doi.org/10.1063/1.5090222
  4. Caldeweyher, E.; Mewes, J.; Ehlert, S.; Grimme, S.
     Extension and evaluation of the D4 London-dispersion model for periodic systems
     Phys. Chem. Chem. Phys. 2020 22(16), 8499-8512
     doi.org/10.1039/D0CP00502A
  5. Neese, F.
     The SHARK Integral Generation and Digestion System
     J. Comp. Chem. 2022 44(3), 381
     doi.org/10.1002/jcc.26942
  6. Wittmann, L.; Gordiy, I.; Friede, M.; Helmich-Paris, B.; Grimme, S.; Hansen, A.; Bursch, M.
     Extension of the D3 and D4 London Dispersion Corrections to the full Actinides Series
     Phys. Chem. Chem. Phys. 2024 26(32), 21379-21394
     doi.org/10.1039/D4CP01514B

List of suggested additional citations. These are papers that are important in the 'surrounding' of 
of this run, or papers that preceded the highly important papers. If you like your results we are grateful for a citation.

  1. Neese, F.
     The ORCA program system
     WIRES Comput. Molec. Sci. 2012 2(1), 73-78
     doi.org/10.1002/wcms.81
  2. Neese, F.
     Software update: the ORCA program system, version 4.0
     WIRES Comput. Molec. Sci. 2018 8(1), 1-6
     doi.org/10.1002/wcms.1327
  3. Neese, F.; Wennmohs, F.; Becker, U.; Riplinger, C.
     The ORCA quantum chemistry program package
     J. Chem. Phys. 2020 152(22), 224108
     doi.org/10.1063/5.0004608
  4. Neese, F.
     Software update: The ORCA program system—Version 5.0
     WIRES Comput. Molec. Sci. 2022 12(1), e1606
     doi.org/10.1002/wcms.1606

List of optional additional citations

  1. Neese, F.
     Approximate second-order SCF convergence for spin unrestricted wavefunctions
     Chem. Phys. Lett. 2000 325(1-3), 93-98
     doi.org/10.1016/s0009-2614(00)00662-x

Timings for individual modules:

Sum of individual times          ...       14.149 sec (=   0.236 min)
Startup calculation              ...        0.722 sec (=   0.012 min)   5.1 %
SCF iterations                   ...        8.825 sec (=   0.147 min)  62.4 %
Property integrals               ...        0.408 sec (=   0.007 min)   2.9 %
SCF Response                     ...        3.158 sec (=   0.053 min)  22.3 %
Property calculations            ...        0.376 sec (=   0.006 min)   2.7 %
SCF Gradient evaluation          ...        0.661 sec (=   0.011 min)   4.7 %
                             ****ORCA TERMINATED NORMALLY****
TOTAL RUN TIME: 0 days 0 hours 0 minutes 15 seconds 256 msec
