2
Properties=species:S:1:pos:R:3:momenta:R:3:forces:R:3 charge=0 spin=0 energy=-54994.100771769365 free_energy=-54994.100771769365 dipole="5.659550266980281e-06 1.3009292544501472e-05 -1.7291394532384072e-05" pbc="F F F"
Al      -4.10795304      -9.67172327      13.49729120       0.00000000       0.00000000      -0.00000000      -0.00000047      -0.00000108       0.00000143
Zn       1.95459032       4.26408072      -5.02565824      -0.00000000      -0.00000000       0.00000000       0.00000044       0.00000103      -0.00000137
