2
Properties=species:S:1:pos:R:3:momenta:R:3:forces:R:3 charge=0 spin=0 energy=-48626.56152425128 free_energy=-48626.56152425128 dipole="0.16503074955471714 -0.01628383106910352 0.03631227354154785" pbc="F F F"
Ag      -0.30411133       0.86376747       0.08485938       0.00000000       0.00000000       0.00000000       1.22978097      -0.11937907       0.27009217
Cu       2.33035128       0.60494657       0.66514768      -0.00000000      -0.00000000      -0.00000000      -1.22978095       0.11937908      -0.27009217
