4
Properties=species:S:1:pos:R:3:forces:R:3 charge=0 spin=0 energy=-91606.15445910365 free_energy=-91606.15445910365 dipole="0.2588035659312272 0.15746820607044865 -0.371408830837409" pbc="F F F"
Al       0.57318085       0.71389467       0.23440360     520.85228964     296.04135197   -1243.67254422
Fe      -0.16298874       0.17750134       0.74791062    -709.54309044    -298.76738864    1728.40021095
Cr       0.59963572       0.81697172       0.91738057     379.13486969     484.91462521    1453.25226769
Ti      -0.02739306       0.17479321       0.04813595    -190.44406889    -482.18858853   -1937.97993443
