2
Properties=species:S:1:pos:R:3:momenta:R:3:forces:R:3 charge=0 spin=0 energy=-54994.14891198722 free_energy=-54994.14891198722 dipole="-0.024840097915887475 0.024434709013481992 -0.052529864853319036" pbc="F F F"
Al      -0.11161168       2.84368735      -1.68082541      -0.00000000      -0.00000000      -0.00000000       0.02213828      -0.02156979       0.04975831
Zn       1.90475297       0.85951363       2.57966805       0.00000000       0.00000000       0.00000000      -0.02213830       0.02156978      -0.04975832
