
                                 *****************
                                 * O   R   C   A *
                                 *****************

                                            #,                                       
                                            ###                                      
                                            ####                                     
                                            #####                                    
                                            ######                                   
                                           ########,                                 
                                     ,,################,,,,,                         
                               ,,#################################,,                 
                          ,,##########################################,,             
                       ,#########################################, ''#####,          
                    ,#############################################,,   '####,        
                  ,##################################################,,,,####,       
                ,###########''''           ''''###############################       
              ,#####''   ,,,,##########,,,,          '''####'''          '####       
            ,##' ,,,,###########################,,,                        '##       
           ' ,,###''''                  '''############,,,                           
         ,,##''                                '''############,,,,        ,,,,,,###''
      ,#''                                            '''#######################'''  
     '                                                          ''''####''''         
             ,#######,   #######,   ,#######,      ##                                
            ,#'     '#,  ##    ##  ,#'     '#,    #''#        ,####,    ,#,          
            ##       ##  ##   ,#'  ##            #'  '#       #'       ,# #          
            ##       ##  #######   ##           ,######,      #####,      #          
            '#,     ,#'  ##    ##  '#,     ,#' ,#      #,     #,   #      #          
             '#######'   ##     ##  '#######'  #'      '#     '####' #    #          



                #########################################################
                #                        -***-                          #
                #          Department of theory and spectroscopy        #
                #                                                       #
                #                      Frank Neese                      #
                #                                                       #
                #     Directorship, Architecture, Infrastructure        #
                #                    SHARK, DRIVERS                     #
                #        Core code/Algorithms in most modules           #
                #                                                       #
                #        Max Planck Institute fuer Kohlenforschung      #
                #                Kaiser Wilhelm Platz 1                 #
                #                 D-45470 Muelheim/Ruhr                 #
                #                      Germany                          #
                #                                                       #
                #                  All rights reserved                  #
                #                        -***-                          #
                #########################################################


                         Program Version 6.1.0  -  RELEASE   -
                                (GIT: $679e74b$)
                          ($2025-06-10 18:02:51 +0200$)


 With contributions from (in alphabetic order):
[Max-Planck-Institut fuer Kohlenforschung]                               
  Daniel Aravena         : Magnetic Suceptibility                        
  Michael Atanasov       : Ab Initio Ligand Field Theory (pilot matlab implementation)
  Alexander A. Auer      : GIAO ZORA, VPT2 properties, NMR spectrum      
  Ute Becker             : All parallelization in ORCA, NUMFREQ, NUMCALC 
  Giovanni Bistoni       : ED, misc. LED, open-shell LED, HFLD           
  Dmytro Bykov           : pre 5.0 version of the SCF Hessian            
  Marcos Casanova-Páez   : Triplet and SCS-CIS(D). UHF-(DLPNO)-IP/EA/STEOM-CCSD. UHF-CVS-IP/STEOM-CCSD   
  Vijay G. Chilkuri      : MRCI spin determinant printing, contributions to CSF-ICE 
  Pauline Colinet        : FMM embedding                                 
  Dipayan Datta          : RHF DLPNO-CCSD density                        
  Achintya Kumar Dutta   : EOM-CC, STEOM-CC                              
  Nicolas Foglia         : Exact transition moments, OPA infrastructure, MCD improvements    
  Dmitry Ganyushin       : Spin-Orbit,Spin-Spin,Magnetic field MRCI      
  Miquel Garcia-Rates    : C-PCM and meta-GGA Hessian, CCSD/C-PCM, Gaussian charge scheme 
  Tiago L. C. Gouveia    : GS-ROHF, GS-ROCIS                             
  Yang Guo               : DLPNO-NEVPT2, F12-NEVPT2, CIM, IAO-localization        
  Andreas Hansen         : Spin unrestricted coupled pair/coupled cluster methods 
  Ingolf Harden          : AUTO-CI MPn and infrastructure                
  Benjamin Helmich-Paris : MC-RPA, TRAH-(SCF,CASSCF), AVAS, COSX integrals, SCF dyn. polar., MC-PDFT, srDFT 
  Lee Huntington         : MR-EOM, pCC                                   
  Robert Izsak           : Overlap fitted RIJCOSX, COSX-SCS-MP3, EOM     
  Riya Kayal             : Wick's Theorem for AUTO-CI, AUTO-CI UHF-CCSDT 
  Emily Kempfer          : AUTO-CI RHF CISDT and CCSDT, approximate NEVPT4
  Christian Kollmar      : KDIIS, OOCD, Brueckner-CCSD(T), CCSD density, CASPT2, CASPT2-K, improved NEVPT2 
  Axel Koslowski         : Symmetry handling                             
  Simone Kossmann        : meta-GGA functionals, TD-DFT gradient, OOMP2, (MP2 Hessian; deprecated post 5.0) 
  Lucas Lang             : DCDCAS, Hyperfine gauge corrections, ICE-SOC+SSC
  Marvin Lechner         : AUTO-CI (C++ implementation), FIC-MRCC        
  Spencer Leger          : CASSCF response                               
  Dagmar Lenk            : GEPOL surface, SMD, ORCA-2-JSON               
  Dimitrios Liakos       : Extrapolation schemes; Compound Job, Property file
  Dimitrios Manganas     : Further ROCIS development; embedding schemes. LFT, Crystal Embedding 
  Dimitrios Pantazis     : SARC Basis sets                               
  Anastasios Papadopoulos: AUTO-CI, single reference methods and gradients 
  Taras Petrenko         : pre 6.0 DFT Hessian and TD-DFT gradient,  ECA, NRVS 
  Petra Pikulova         : Analytic Raman intensities                    
  Peter Pinski           : DLPNO-MP2, DLPNO-MP2 Gradient                 
  Shashank Vittal Rao    : ES-AILFT, MagRelax                            
  Christoph Reimann      : Effective Core Potentials                     
  Marius Retegan         : Local ZFS, SOC                                
  Christoph Riplinger    : Optimizer, TS searches, QM/MM, DLPNO-CCSD(T), (RO)-DLPNO pert. Triples 
  Michael Roemelt        : Original ROCIS implementation, recursive CI coupling coefficients
  Masaaki Saitow         : Open-shell DLPNO-CCSD energy and density      
  Barbara Sandhoefer     : DKH picture change effects                    
  Yorick L. A. Schmerwitz: GMF and freeze-and-release deltaSCF, NEB S-IDPP initial path                    
  Kantharuban Sivalingam : CASSCF convergence/infrastructure, NEVPT2, NEVPT3, NEVPT4(SD), FIC-MRCI and CEPA variants
  Bernardo de Souza      : ESD, SOC TD-DFT                               
  Georgi L. Stoychev     : AutoAux, RI-MP2 NMR, DLPNO-MP2 response, X2C  
  Van Anh Tran           : RI-MP2 g-tensors                              
  Willem Van den Heuvel  : Paramagnetic NMR                              
  Zikuan Wang            : NOTCH, Electric field optimization            
  Frank Wennmohs         : Technical directorship and infrastructure     
  Hang Xu                : AUTO-CI-Response properties                   
                                                                         
[FACCTs GmbH]                                                            
  Markus Bursch, Nicolas Foglia, Miquel Garcia-Rates, Ingolf Harden, Hagen Neugebauer, Anastasios Papadopoulos, 
  Christoph Riplinger, Bernardo de Souza, Georgi L. Stoychev                                                    
                                                                 
  APM, various basis sets, CI-OPT, improved COSX, DLPNO-Multilevel,           
  DOCKER, DRACO, updates on ESD, Fragmentator, GOAT, IRC, LR-CPCM, L-BFGS, MBIS, meta-GGA TD-DFT gradient, ML-optimized integration grids, 
  MM, NACMEs, nearIR, NEB, NEB-TS, NL-DFT gradient (VV10), 2- and 3-layer-ONIOM, interface openCOSMO-RS, QMMM,   
  Crystal-QMMM, RESP, rigid body optimization, SF, symmetry and pop. for TD-DFT, various functionals, SOLVATOR                                   
                                                                         
[Other institutions]                                                     
  V. Asgeirsson          : NEB                                           
  Christoph Bannwarth    : sTDA-DFT, sTD-DFT, PBEh-3c, B97-3c, D3        
  Giovanni Bistoni       : ETS/NOCV, ADLD/ADEX, COVALED                  
  Martin Brehm           : Molecular dynamics                            
  Ronald Cardenas        : ETS/NOCV                                      
  Martina Colucci        : COVALED                                       
  Sebastian Ehlert       : rSCAN, r2SCAN, r2SCAN-3c, D4, dhf basis sets  
  Marvin Friede          : D4 for Fr, Ra, Ac-Lr                          
  Lars Goerigk           : TD-DFT with DH, B97 family of functionals     
  Stefan Grimme          : VdW corrections, initial TS optimization, DFT functionals, gCP, sTDA/sTD-DF 
  Waldemar Hujo          : DFT-NL                                        
  H. Jonsson             : NEB                                           
  Holger Kruse           : gCP                                           
  Marcel Mueller         : wB97X-3c, vDZP basis set                      
  Hagen Neugebauer       : wr2SCAN, Native XTB                           
  Gianluca Regni         : ADLD/ADEX                                     
  Tobias Risthaus        : pre 6.0 range-separated hybrid DFT and stability analysis
  Lukas Wittmann         : regularized MP2, r2SCAN double-hybrids, wr2SCAN        
                                                                         
We gratefully acknowledge several colleagues who have allowed us to      
interface, adapt or use parts of their codes:                            
  Ed Valeev, F. Pavosevic, A. Kumar             : LibInt (2-el integral package), F12 methods 
  Garnet Chan, S. Sharma, J. Yang, R. Olivares  : DMRG                   
  Ulf Ekstrom                                   : XCFun DFT Library      
  Mihaly Kallay                                 : mrcc  (arbitrary order and MRCC methods)
  Frank Weinhold                                : gennbo (NPA and NBO analysis)           
  Simon Mueller                                 : openCOSMO-RS                            
  Christopher J. Cramer and Donald G. Truhlar   : smd solvation model                     
  S Lehtola, MJT Oliveira, MAL Marques          : LibXC Library                           
  Liviu Ungur et al                             : ANISO software                          


 Your calculation uses the libint2 library for the computation of 2-el integrals
 For citations please refer to: http://libint.valeyev.net

 Your ORCA version has been built with support for libXC version: 7.0.0
 For citations please refer to: https://libxc.gitlab.io

 This ORCA versions uses:
   CBLAS   interface :  Fast vector & matrix operations
   LAPACKE interface :  Fast linear algebra routines
   SCALAPACK package :  Parallel linear algebra routines
   Shared memory     :  Shared parallel matrices
   BLAS/LAPACK       :  OpenBLAS 0.3.29  USE64BITINT DYNAMIC_ARCH NO_AFFINITY Cooperlake SINGLE_THREADED
        Core in use  :  Cooperlake
   Copyright (c) 2011-2014, The OpenBLAS Project


  ***********************************
  * Starting time: Tue Oct 14 04:05:55 2025
  * Host name:     zhoulab-2
  * Process ID:    1399393
  * Working dir.:  /data/home/grads/jianpengc/projects/materials/R_MetaSymbO/_mdopt_1/orca_sp
  ***********************************

NOTE: MaxCore=16 MB was set to SCF,MP2,MDCI,CIPSI,MRCI,RASCI and CIS
      => If you want to overwrite this, your respective input block should be placed after the MaxCore statement
Your calculation utilizes the atom-pairwise dispersion correction
based on EEQ partial charges (D4)


================================================================================

----- Orbital basis set information -----
Your calculation utilizes the basis: def2-SVP
   F. Weigend and R. Ahlrichs, Phys. Chem. Chem. Phys. 7, 3297 (2005).

----- AuxJ basis set information -----
Your calculation utilizes the auxiliary basis: def2/J
   H-Rn: F. Weigend, Phys. Chem. Chem. Phys. 8, 1057 (2006).
   Fr-Lr: K. Eichkorn, F. Weigend, O. Treutler, R. Ahlrichs; Theor. Chem. Acc. 97, 119 (1997).

================================================================================
                                        WARNINGS
                       Please study these warnings very carefully!
================================================================================



WARNING: Found flag for RIJCOSX approximation but no HF exchange needed!
  ===> : RIJCOSX  will be disabled and Split-RI-J is turned on

================================================================================
                                       INPUT FILE
================================================================================
NAME = orca.inp
|  1> ! UKS PBE def2-SVP def2/J RIJCOSX TightSCF D4 EnGrad CHELPG 
|  2> %maxcore 16
|  3> 
|  4> %pal
|  5>   nprocs 8
|  6> end
|  7> 
|  8> %scf
|  9>   MaxIter 50
| 10>   DIISStart 3
| 11>   SOSCFStart 8
| 12>   # 金属体系有时加点电子温度有利于收敛（单位 K）
| 13> end
| 14> 
| 15> %output
| 16>   PrintLevel Normal
| 17>   Print[ P_OrbEn ] 2
| 18>   Print[ P_Mulliken ] 1
| 19>   Print[ P_Loewdin ] 1
| 20>   Print[ P_Mayer ] 1
| 21>   Print[ P_Hirshfeld ] 1
| 22>   Print[ P_MBIS ] 1
| 23> end
| 24> 
| 25> %elprop
| 26>   Dipole true
| 27>   Quadrupole true
| 28>   Polar true
| 29> end
| 30>  
| 31> *xyz 0 2 
| 32> Al   -0.11161168017017924 2.8436873511035103 -1.6808254059564565
| 33> Zn   1.9047529677405546 0.859513628675516 2.5796680501443117
| 34> *
| 35> 
| 36>                          ****END OF INPUT****
================================================================================

                     *******************************
                     * Energy+Gradient Calculation *
                     *******************************

---------------------------------
CARTESIAN COORDINATES (ANGSTROEM)
---------------------------------
  Al    -0.111612    2.843687   -1.680825
  Zn     1.904753    0.859514    2.579668

----------------------------
CARTESIAN COORDINATES (A.U.)
----------------------------
  NO LB      ZA    FRAG     MASS         X           Y           Z
   0 Al   13.0000    0    26.982   -0.210916    5.373790   -3.176300
   1 Zn   30.0000    0    65.380    3.599461    1.624245    4.874866

--------------------------------
INTERNAL COORDINATES (ANGSTROEM)
--------------------------------
 Al     0   0   0     0.000000000000     0.00000000     0.00000000
 Zn     1   0   0     5.114144722590     0.00000000     0.00000000

---------------------------
INTERNAL COORDINATES (A.U.)
---------------------------
 Al     0   0   0     0.000000000000     0.00000000     0.00000000
 Zn     1   0   0     9.664332934934     0.00000000     0.00000000

---------------------
BASIS SET INFORMATION
---------------------
There are 2 groups of distinct atoms

 Group   1 Type Al  : 10s7p1d contracted to 4s3p1d pattern {5311/511/1}
 Group   2 Type Zn  : 14s9p5d1f contracted to 5s3p2d1f pattern {63311/531/41/1}

Atom   0Al   basis set group =>   1
Atom   1Zn   basis set group =>   2
---------------------------------
AUXILIARY/J BASIS SET INFORMATION
---------------------------------
There are 2 groups of distinct atoms

 Group   1 Type Al  : 14s5p5d2f1g contracted to 8s4p3d1f1g pattern {71111111/2111/311/2/1}
 Group   2 Type Zn  : 19s5p5d3f3g contracted to 8s5p5d2f3g pattern {121111111/11111/11111/21/111}

Atom   0Al   basis set group =>   1
Atom   1Zn   basis set group =>   2

Checking for AutoStart:
The File: orca.gbw exists
Trying to determine its content:
     ... Fine, the file contains calculation information
     ... Fine, the calculation information was read
     ... Fine, the file contains a basis set
     ... Fine, the basis set was read
     ... Fine, the file contains a geometry
     ... Fine, the geometry was read
     ... The file does not contain orbitals - skipping AutoStart


           ************************************************************
           *        Program running with 8 parallel MPI-processes     *
           *              working on a common directory               *
           ************************************************************
------------------------------------------------------------------------------
                             ORCA STARTUP CALCULATIONS
                           -- RI-GTO INTEGRALS CHOSEN --
------------------------------------------------------------------------------
------------------------------------------------------------------------------
                   ___                                                        
                  /   \      - P O W E R E D   B Y -                         
                 /     \                                                     
                 |  |  |   _    _      __       _____    __    __             
                 |  |  |  | |  | |    /  \     |  _  \  |  |  /  |          
                  \  \/   | |  | |   /    \    | | | |  |  | /  /          
                 / \  \   | |__| |  /  /\  \   | |_| |  |  |/  /          
                |  |  |   |  __  | /  /__\  \  |    /   |      \           
                |  |  |   | |  | | |   __   |  |    \   |  |\   \          
                \     /   | |  | | |  |  |  |  | |\  \  |  | \   \       
                 \___/    |_|  |_| |__|  |__|  |_| \__\ |__|  \__/        
                                                                              
                      - O R C A' S   B I G   F R I E N D -                    
                                      &                                       
                       - I N T E G R A L  F E E D E R -                       
                                                                              
 v1 FN, 2020, v2 2021, v3 2022-2024                                           
------------------------------------------------------------------------------


----------------------
SHARK INTEGRAL PACKAGE
----------------------

Number of atoms                             ...      2
Number of basis functions                   ...     49
Number of shells                            ...     19
Maximum angular momentum                    ...      3
Integral batch strategy                     ... SHARK/LIBINT Hybrid
RI-J (if used) integral strategy            ... SPLIT-RIJ (Revised 2003 algorithm where possible)
Printlevel                                  ...      1
Contraction scheme used                     ... SEGMENTED contraction
Prescreening option                         ... SCHWARTZ
   Thresh                                   ... 2.500e-11
   Tcut                                     ... 2.500e-12
   Tpresel                                  ... 2.500e-12 
Coulomb Range Separation                    ... NOT USED
Exchange Range Separation                   ... NOT USED
Multipole approximations                    ... NOT USED
Finite Nucleus Model                        ... NOT USED
CABS basis                                  ... NOT available
Auxiliary Coulomb fitting basis             ... AVAILABLE
   # of basis functions in Aux-J            ...    140
   # of shells in Aux-J                     ...     40
   Maximum angular momentum in Aux-J        ...      4
Auxiliary J/K fitting basis                 ... NOT available
Auxiliary Correlation fitting basis         ... NOT available
Auxiliary 'external' fitting basis          ... NOT available

Checking pre-screening integrals            ... done (  0.0 sec) Dimension = 19
   => SHARK Basis and OBASIS are compatible. Storing Pre-screening
Shell pair information
Shell pair cut-off parameter TPreSel        ...   2.5e-12
Total number of shell pairs                 ...       190
Shell pairs after pre-screening             ...       165
Total number of primitive shell pairs       ...      1191
Primitive shell pairs kept                  ...       847
          la=0 lb=0:     39 shell pairs
          la=1 lb=0:     47 shell pairs
          la=1 lb=1:     19 shell pairs
          la=2 lb=0:     22 shell pairs
          la=2 lb=1:     16 shell pairs
          la=2 lb=2:      6 shell pairs
          la=3 lb=0:      7 shell pairs
          la=3 lb=1:      5 shell pairs
          la=3 lb=2:      3 shell pairs
          la=3 lb=3:      1 shell pairs

Checking whether 4 symmetric matrices of dimension 49 fit in memory
:Max Core in MB      =     16.00
 MB in use           =      3.44
 MB left             =     12.56
 MB needed           =      0.04
 Data fit in memory  = YES
Calculating RI/J V-Matrix + Cholesky decomp.... done (  0.1 sec)
Calculating Nuclear repulsion               ... done (  0.0 sec) ENN=     40.354570007647 Eh

Diagonalization of the overlap matrix:
Smallest eigenvalue                        ... 1.134e-01
Time for diagonalization                   ...    0.034 sec
Threshold for overlap eigenvalues          ... 1.000e-07
Number of eigenvalues below threshold      ... 0
Time for construction of square roots      ...    0.003 sec
Total time needed                          ...    0.043 sec

-------------------
DFT GRID GENERATION
-------------------

General Integration Accuracy     IntAcc      ... 4.388
Radial Grid Type                 RadialGrid  ... OptM3 with GC (2021)
Angular Grid (max. ang.)         AngularGrid ... 4 (Lebedev-302)
Angular grid pruning method      GridPruning ... 4 (adaptive)
Weight generation scheme         WeightScheme... mBecke (2022)
Basis function cutoff            BFCut       ... 1.0000e-11
Integration weight cutoff        WCut        ... 1.0000e-14
Partially contracted basis set               ... off
Rotationally invariant grid construction     ... off
Angular grids for H and He will be reduced by one unit
Core-polarized basis detected: some atoms will have their core
                               angular grid increased.

Total number of grid points                  ...    18704
Total number of batches                      ...      293
Average number of points per batch           ...       63
Average number of grid points per atom       ...     9352
Grids setup in   0.2 sec
Initializing property integral containers    ... done (  0.0 sec)

SHARK setup successfully completed in   0.7 seconds

Maximum memory used throughout the entire STARTUP-calculation: 13.8 MB


           ************************************************************
           *        Program running with 8 parallel MPI-processes     *
           *              working on a common directory               *
           ************************************************************
-------------------------------------------------------------------------------
                                 ORCA GUESS
                   Start orbitals & Density for SCF / CASSCF
-------------------------------------------------------------------------------

------------
SCF SETTINGS
------------
Hamiltonian:
 Density Functional     Method          .... DFT(GTOs)
 Exchange Functional    Exchange        .... PBE
   PBE kappa parameter   XKappa         ....  0.804000
   PBE mue parameter    XMuePBE         ....  0.219520
 Correlation Functional Correlation     .... PBE
   PBE beta parameter  CBetaPBE         ....  0.066725
 LDA part of GGA corr.  LDAOpt          .... PW91-LDA
 Gradients option       PostSCFGGA      .... off
   NL short-range parameter             ....  6.400000
 RI-approximation to the Coulomb term is turned on
   Number of AuxJ basis functions       .... 140


General Settings:
 Integral files         IntName         .... orca
 Hartree-Fock type      HFTyp           .... UHF
 Total Charge           Charge          ....    0
 Multiplicity           Mult            ....    2
 Number of Electrons    NEL             ....   43
 Basis Dimension        Dim             ....   49
 Nuclear Repulsion      ENuc            ....     40.3545700076 Eh

Convergence Acceleration:
 AO-DIIS                CNVDIIS         .... on
   Start iteration      DIISMaxIt       ....    12
   Startup error        DIISStart       ....  3.000000
   # of expansion vecs  DIISMaxEq       ....     5
   Bias factor          DIISBfac        ....   1.050
   Max. coefficient     DIISMaxC        ....  10.000
 MO-DIIS                CNVKDIIS        .... off
 Trust-Rad. Augm. Hess. CNVTRAH         .... auto
   Auto Start mean grad. ratio tolernc. ....  1.125000
   Auto Start start iteration           ....    50
   Auto Start num. interpolation iter.  ....    10
   Max. Number of Micro iterations      ....    24
   Max. Number of Macro iterations      .... Maxiter - #DIIS iter
   Number of Davidson start vectors     ....     2
   Converg. threshold    (grad. norm)   ....   1.000e-05
   Grad. Scal. Fac. for Micro threshold ....   0.100
   Minimum threshold for Micro iter.    ....   1.000e-02
   NR start threshold (gradient norm)   ....   1.000e-04
   Initial trust radius                 ....   0.400
   Minimum AH scaling param. (alpha)    ....   1.000
   Maximum AH scaling param. (alpha)    .... 1000.000
   Quad. conv. algorithm                .... NR
   White noise on init. David. guess    .... on
   Maximum white noise                  ....   0.010
   Pseudo random numbers                .... off
   Inactive MOs                         .... canonical
   Orbital update algorithm             .... Taylor
   Preconditioner                       .... Diag
   Full preconditioner red. dimension   ....   250
 SOSCF                 CNVSOSCF           .... on
   Start iteration     SOSCFMaxIt         ....   150
   Startup grad/error  SOSCFStart         ....  8.000000
   Hessian update      SOSCFHessUp        .... L-BFGS
   Autom. constraints  SOSCFAutoConstrain .... off
 Level Shifting         CNVShift        .... on
   Level shift para.    LevelShift      ....    0.2500
   Turn off err/grad.   ShiftErr        ....    0.0010
 Zerner damping         CNVZerner       .... off
 Static damping         CNVDamp         .... on
   Fraction old density DampFac         ....    0.7000
   Max. Damping (<1)    DampMax         ....    0.9800
   Min. Damping (>=0)   DampMin         ....    0.0000
   Turn off err/grad.   DampErr         ....    0.1000

SCF Procedure:
 Maximum # iterations   MaxIter         ....    50
 SCF integral mode      SCFMode         .... Direct
   Integral package                     .... SHARK and LIBINT hybrid scheme
 Reset frequency        DirectResetFreq ....    20
 Integral Threshold     Thresh          ....  2.500e-11 Eh
 Primitive CutOff       TCut            ....  2.500e-12 Eh

Convergence Tolerance:
 Convergence Check Mode ConvCheckMode   .... Total+1el-Energy
 Convergence forced     ConvForced      .... 0
 Energy Change          TolE            ....  1.000e-08 Eh
 1-El. energy change                    ....  1.000e-05 Eh
 Orbital Gradient       TolG            ....  1.000e-05
 Orbital Rotation angle TolX            ....  1.000e-05
 DIIS Error             TolErr          ....  5.000e-07

------------------------------
INITIAL GUESS: MODEL POTENTIAL
------------------------------
Loading Hartree-Fock densities                     ... done
Calculating cut-offs                               ... done
Initializing the effective Hamiltonian             ... done
Setting up the integral package (SHARK)            ... done
Starting the Coulomb interaction                   ... done (   0.2 sec)
Making the grid                                    ... done (   0.1 sec)
Mapping shells                                     ... done
Starting the XC term evaluation                    ... done (   0.0 sec)
  promolecular density results
     # of electrons  =     42.999964641
     EX              =    -87.489336880
     EC              =     -1.855698656
     EX+EC           =    -89.345035536
Transforming the Hamiltonian                       ... done (   0.0 sec)
Diagonalizing the Hamiltonian                      ... done (   0.0 sec)
Back transforming the eigenvectors                 ... done (   0.0 sec)
Now organizing SCF variables                       ... done
                      ------------------
                      INITIAL GUESS DONE (   0.3 sec)
                      ------------------
             **** ENERGY FILE WAS UPDATED (orca.en.tmp) ****
Finished Guess after   0.5 sec
Maximum memory used throughout the entire GUESS-calculation: 7.0 MB


           ************************************************************
           *        Program running with 8 parallel MPI-processes     *
           *              working on a common directory               *
           ************************************************************

-------------------------------------------------------------------------------------------
                                      ORCA LEAN-SCF
                              memory conserving SCF solver
-------------------------------------------------------------------------------------------

----------------------------------------D-I-I-S--------------------------------------------
Iteration    Energy (Eh)           Delta-E    RMSDP     MaxDP     DIISErr   Damp  Time(sec)
-------------------------------------------------------------------------------------------
               ***  Starting incremental Fock matrix formation  ***
                              *** Initializing SOSCF ***
---------------------------------------S-O-S-C-F--------------------------------------
Iteration    Energy (Eh)           Delta-E    RMSDP     MaxDP     MaxGrad    Time(sec)
--------------------------------------------------------------------------------------
    1    -2020.9864588148825533     0.00e+00  8.29e-03  3.62e-02  8.01e-03     0.4
               *** Restarting incremental Fock matrix formation ***
    2    -2020.9832965103137212     3.16e-03  1.32e-02  8.89e-02  7.24e-02     0.1
    3    -2020.9716660441231397     1.16e-02  7.58e-03  4.93e-02  1.02e-01     0.1
    4    -2020.9969603228269079    -2.53e-02  2.34e-04  1.26e-03  1.73e-03     0.2
    5    -2020.9969752857841740    -1.50e-05  1.01e-04  5.99e-04  3.85e-04     0.2
    6    -2020.9969761999495859    -9.14e-07  2.56e-05  1.40e-04  6.25e-05     0.2
    7    -2020.9969762410451040    -4.11e-08  5.40e-06  3.07e-05  1.67e-05     0.2
    8    -2020.9969762439454826    -2.90e-09  1.29e-06  8.76e-06  8.85e-06     0.1
                 **** Energy Check signals convergence ****

               *****************************************************
               *                     SUCCESS                       *
               *           SCF CONVERGED AFTER   8 CYCLES          *
               *****************************************************

             **** ENERGY FILE WAS UPDATED (orca.en.tmp) ****

----------------
TOTAL SCF ENERGY
----------------

Total Energy       :      -2020.99697624460578 Eh          -54994.12357 eV

Components:
Nuclear Repulsion  :         40.35457000764747 Eh            1098.10368 eV
Electronic Energy  :      -2061.35154625225323 Eh          -56092.22725 eV
One Electron Energy:      -2899.89575220070583 Eh          -78910.17513 eV
Two Electron Energy:        838.54420594845249 Eh           22817.94789 eV

Virial components:
Potential Energy   :      -4038.20845716100030 Eh         -109885.23858 eV
Kinetic Energy     :       2017.21148091639429 Eh           54891.11501 eV
Virial Ratio       :          2.00187659814750

DFT components:
N(Alpha)           :       22.000000930619 electrons
N(Beta)            :       20.999999866815 electrons
N(Total)           :       43.000000797434 electrons
E(X)               :      -87.386495633781 Eh       
E(C)               :       -1.853329117198 Eh       
E(XC)              :      -89.239824750979 Eh       

---------------
SCF CONVERGENCE
---------------

  Last Energy change         ...    2.9004e-09  Tolerance :   1.0000e-08
  Last MAX-Density change    ...    8.7619e-06  Tolerance :   1.0000e-07
  Last RMS-Density change    ...    1.2938e-06  Tolerance :   5.0000e-09
  Last DIIS Error            ...    5.7613e-02  Tolerance :   5.0000e-07
  Last Orbital Gradient      ...    8.8516e-06  Tolerance :   1.0000e-05
  Last Orbital Rotation      ...    1.1714e-05  Tolerance :   1.0000e-05


----------------------
UHF SPIN CONTAMINATION
----------------------

Warning: in a DFT calculation there is little theoretical justification to 
         calculate <S**2> as in Hartree-Fock theory. We will do it anyways
         but you should keep in mind that the values have only limited relevance

Expectation value of <S**2>     :     0.752662
Ideal value S*(S+1) for S=0.5   :     0.750000
Deviation                       :     0.002662

----------------
ORBITAL ENERGIES
----------------
                 SPIN UP ORBITALS
  NO   OCC          E(Eh)            E(eV) 
   0   1.0000    -345.642223     -9405.4030 
   1   1.0000     -55.399740     -1507.5036 
   2   1.0000     -41.610217     -1132.2716 
   3   1.0000     -36.692468      -998.4528 
   4   1.0000     -36.692466      -998.4528 
   5   1.0000     -36.692374      -998.4503 
   6   1.0000      -4.547618      -123.7470 
   7   1.0000      -3.953220      -107.5726 
   8   1.0000      -2.982360       -81.1541 
   9   1.0000      -2.982356       -81.1540 
  10   1.0000      -2.982183       -81.1493 
  11   1.0000      -2.560281       -69.6688 
  12   1.0000      -2.560279       -69.6687 
  13   1.0000      -2.557292       -69.5875 
  14   1.0000      -0.340667        -9.2700 
  15   1.0000      -0.340660        -9.2698 
  16   1.0000      -0.340499        -9.2655 
  17   1.0000      -0.340474        -9.2648 
  18   1.0000      -0.340449        -9.2641 
  19   1.0000      -0.287417        -7.8210 
  20   1.0000      -0.197011        -5.3609 
  21   1.0000      -0.112178        -3.0525 
  22   0.0000      -0.100151        -2.7252 
  23   0.0000      -0.100150        -2.7252 
  24   0.0000       0.030059         0.8179 
  25   0.0000       0.034742         0.9454 
  26   0.0000       0.034744         0.9454 
  27   0.0000       0.070659         1.9227 
  28   0.0000       0.106219         2.8904 
  29   0.0000       0.282225         7.6797 
  30   0.0000       0.282245         7.6803 
  31   0.0000       0.286897         7.8069 
  32   0.0000       0.372025        10.1233 
  33   0.0000       0.372039        10.1237 
  34   0.0000       0.379205        10.3187 
  35   0.0000       0.383919        10.4470 
  36   0.0000       0.383927        10.4472 
  37   0.0000       1.297245        35.2998 
  38   0.0000       1.297283        35.3009 
  39   0.0000       1.297659        35.3111 
  40   0.0000       1.297721        35.3128 
  41   0.0000       1.298502        35.3340 
  42   0.0000       6.450556       175.5286 
  43   0.0000       6.450557       175.5286 
  44   0.0000       6.450736       175.5334 
  45   0.0000       6.450741       175.5336 
  46   0.0000       6.450835       175.5361 
  47   0.0000       6.450848       175.5365 
  48   0.0000       6.450883       175.5374 

                 SPIN DOWN ORBITALS
  NO   OCC          E(Eh)            E(eV) 
   0   1.0000    -345.642206     -9405.4026 
   1   1.0000     -55.398129     -1507.4597 
   2   1.0000     -41.610216     -1132.2715 
   3   1.0000     -36.692465      -998.4527 
   4   1.0000     -36.692464      -998.4527 
   5   1.0000     -36.692360      -998.4499 
   6   1.0000      -4.547600      -123.7465 
   7   1.0000      -3.951229      -107.5184 
   8   1.0000      -2.982337       -81.1535 
   9   1.0000      -2.982333       -81.1534 
  10   1.0000      -2.982155       -81.1486 
  11   1.0000      -2.559361       -69.6437 
  12   1.0000      -2.559359       -69.6437 
  13   1.0000      -2.551745       -69.4365 
  14   1.0000      -0.340612        -9.2685 
  15   1.0000      -0.340606        -9.2684 
  16   1.0000      -0.340420        -9.2633 
  17   1.0000      -0.340395        -9.2626 
  18   1.0000      -0.340347        -9.2613 
  19   1.0000      -0.265374        -7.2212 
  20   1.0000      -0.196388        -5.3440 
  21   0.0000      -0.089758        -2.4424 
  22   0.0000      -0.089756        -2.4424 
  23   0.0000      -0.062554        -1.7022 
  24   0.0000       0.033327         0.9069 
  25   0.0000       0.035080         0.9546 
  26   0.0000       0.035081         0.9546 
  27   0.0000       0.077000         2.0953 
  28   0.0000       0.116363         3.1664 
  29   0.0000       0.288607         7.8534 
  30   0.0000       0.288634         7.8541 
  31   0.0000       0.323832         8.8119 
  32   0.0000       0.383779        10.4432 
  33   0.0000       0.383791        10.4435 
  34   0.0000       0.412624        11.2281 
  35   0.0000       0.412640        11.2285 
  36   0.0000       0.424249        11.5444 
  37   0.0000       1.297492        35.3066 
  38   0.0000       1.297531        35.3076 
  39   0.0000       1.298074        35.3224 
  40   0.0000       1.298136        35.3241 
  41   0.0000       1.299038        35.3486 
  42   0.0000       6.450570       175.5289 
  43   0.0000       6.450570       175.5289 
  44   0.0000       6.450754       175.5339 
  45   0.0000       6.450759       175.5341 
  46   0.0000       6.450860       175.5368 
  47   0.0000       6.450874       175.5372 
  48   0.0000       6.450912       175.5382 

                    ********************************
                    * MULLIKEN POPULATION ANALYSIS *
                    ********************************

--------------------------------------------
MULLIKEN ATOMIC CHARGES AND SPIN POPULATIONS
--------------------------------------------
   0 Al:    0.005871    0.988190
   1 Zn:   -0.005871    0.011810
Sum of atomic charges         :   -0.0000000
Sum of atomic spin populations:    1.0000000

-----------------------------------------------------
MULLIKEN REDUCED ORBITAL CHARGES AND SPIN POPULATIONS
-----------------------------------------------------
CHARGE
  0 Als       :     5.998905  s :     5.998905
      pz      :     2.687338  p :     6.993484
      px      :     2.155278
      py      :     2.150868
      dz2     :     0.000503  d :     0.001740
      dxz     :     0.000564
      dyz     :     0.000548
      dx2y2   :     0.000000
      dxy     :     0.000124

  1 Zns       :     7.997922  s :     7.997922
      pz      :     4.005648  p :    12.008135
      px      :     4.001264
      py      :     4.001223
      dz2     :     1.999945  d :     9.999815
      dxz     :     1.999942
      dyz     :     1.999943
      dx2y2   :     1.999998
      dxy     :     1.999986
      f0      :     0.000000  f :     0.000000
      f+1     :     0.000000
      f-1     :     0.000000
      f+2     :     0.000000
      f-2     :     0.000000
      f+3     :     0.000000
      f-3     :     0.000000


SPIN
  0 Als       :     0.001419  s :     0.001419
      pz      :     0.683676  p :     0.988201
      px      :     0.154455
      py      :     0.150070
      dz2     :    -0.000413  d :    -0.001430
      dxz     :    -0.000464
      dyz     :    -0.000451
      dx2y2   :    -0.000000
      dxy     :    -0.000102

  1 Zns       :     0.003837  s :     0.003837
      pz      :     0.005490  p :     0.007907
      px      :     0.001228
      py      :     0.001189
      dz2     :     0.000020  d :     0.000067
      dxz     :     0.000022
      dyz     :     0.000021
      dx2y2   :    -0.000000
      dxy     :     0.000005
      f0      :    -0.000000  f :     0.000000
      f+1     :     0.000000
      f-1     :     0.000000
      f+2     :    -0.000000
      f-2     :     0.000000
      f+3     :    -0.000000
      f-3     :    -0.000000


------------------------
MULLIKEN OVERLAP CHARGES
------------------------



                     *******************************
                     * LOEWDIN POPULATION ANALYSIS *
                     *******************************

-------------------------------------------
LOEWDIN ATOMIC CHARGES AND SPIN POPULATIONS
-------------------------------------------
   0 Al:    0.008231    0.986197
   1 Zn:   -0.008231    0.013803

----------------------------------------------------
LOEWDIN REDUCED ORBITAL CHARGES AND SPIN POPULATIONS
----------------------------------------------------
CHARGE
  0 Als       :     5.998132  s :     5.998132
      pz      :     2.686248  p :     6.991910
      px      :     2.155033
      py      :     2.150630
      dz2     :     0.000500  d :     0.001727
      dxz     :     0.000560
      dyz     :     0.000544
      dx2y2   :     0.000000
      dxy     :     0.000123

  1 Zns       :     7.999915  s :     7.999915
      pz      :     4.005874  p :    12.008459
      px      :     4.001314
      py      :     4.001272
      dz2     :     1.999958  d :     9.999856
      dxz     :     1.999955
      dyz     :     1.999956
      dx2y2   :     1.999998
      dxy     :     1.999989
      f0      :     0.000000  f :     0.000000
      f+1     :     0.000000
      f-1     :     0.000000
      f+2     :     0.000000
      f-2     :     0.000000
      f+3     :     0.000000
      f-3     :     0.000000


SPIN
  0 Als       :     0.001395  s :     0.001395
      pz      :     0.682313  p :     0.986234
      px      :     0.154148
      py      :     0.149773
      dz2     :    -0.000414  d :    -0.001433
      dxz     :    -0.000465
      dyz     :    -0.000452
      dx2y2   :    -0.000000
      dxy     :    -0.000102

  1 Zns       :     0.005430  s :     0.005430
      pz      :     0.005762  p :     0.008299
      px      :     0.001289
      py      :     0.001248
      dz2     :     0.000022  d :     0.000074
      dxz     :     0.000024
      dyz     :     0.000023
      dx2y2   :    -0.000000
      dxy     :     0.000005
      f0      :    -0.000000  f :     0.000000
      f+1     :     0.000000
      f-1     :     0.000000
      f+2     :    -0.000000
      f-2     :     0.000000
      f+3     :    -0.000000
      f-3     :    -0.000000


---------------------------------
LOEWDIN BOND ORDERS (THRESH 0.050000)
---------------------------------


------------------------------------------
LOEWDIN REDUCED ORBITAL POPULATIONS PER MO
-------------------------------------------
THRESHOLD FOR PRINTING IS 0.1%%
SPIN UP
                      0         1         2         3         4         5   
                 -345.64222 -55.39974 -41.61022 -36.69247 -36.69247 -36.69237
                   1.00000   1.00000   1.00000   1.00000   1.00000   1.00000
                  --------  --------  --------  --------  --------  --------
 0 Al s               0.0     100.0       0.0       0.0       0.0       0.0
 1 Zn s             100.0       0.0     100.0       0.0       0.0       0.0
 1 Zn pz              0.0       0.0       0.0      30.4       0.0      69.6
 1 Zn px              0.0       0.0       0.0      33.9      50.7      15.4
 1 Zn py              0.0       0.0       0.0      35.8      49.3      14.9

                      6         7         8         9        10        11   
                  -4.54762  -3.95322  -2.98236  -2.98236  -2.98218  -2.56028
                   1.00000   1.00000   1.00000   1.00000   1.00000   1.00000
                  --------  --------  --------  --------  --------  --------
 0 Al s               0.0     100.0       0.0       0.0       0.0       0.0
 0 Al pz              0.0       0.0       0.0       0.0       0.0      30.7
 0 Al px              0.0       0.0       0.0       0.0       0.0      38.2
 0 Al py              0.0       0.0       0.0       0.0       0.0      31.1
 1 Zn s             100.0       0.0       0.0       0.0       0.0       0.0
 1 Zn pz              0.0       0.0      31.7       0.0      68.3       0.0
 1 Zn px              0.0       0.0      32.2      51.8      16.1       0.0
 1 Zn py              0.0       0.0      36.2      48.2      15.7       0.0

                     12        13        14        15        16        17   
                  -2.56028  -2.55729  -0.34067  -0.34066  -0.34050  -0.34047
                   1.00000   1.00000   1.00000   1.00000   1.00000   1.00000
                  --------  --------  --------  --------  --------  --------
 0 Al pz              0.0      69.2       0.0       0.0       0.0       0.0
 0 Al px             46.2      15.6       0.0       0.0       0.0       0.0
 0 Al py             53.7      15.2       0.0       0.0       0.0       0.0
 1 Zn dz2             0.0       0.0       8.2       0.0      75.2       0.0
 1 Zn dxz             0.0       0.0       9.7      14.9       2.7      37.1
 1 Zn dyz             0.0       0.0      10.1      15.2       3.9      32.8
 1 Zn dx2y2           0.0       0.0       0.0      69.9       0.0      30.1
 1 Zn dxy             0.0       0.0      72.0       0.0      18.2       0.0

                     18        19        20        21        22        23   
                  -0.34045  -0.28742  -0.19701  -0.11218  -0.10015  -0.10015
                   1.00000   1.00000   1.00000   1.00000   0.00000   0.00000
                  --------  --------  --------  --------  --------  --------
 0 Al s               0.0      99.8       0.1       0.0       0.0       0.0
 0 Al pz              0.0       0.0       0.4      68.0       0.0      30.8
 0 Al px              0.0       0.0       0.1      15.4      51.0      33.3
 0 Al py              0.0       0.0       0.1      14.9      48.9      35.9
 1 Zn s               0.0       0.2      99.2       0.9       0.0       0.0
 1 Zn pz              0.0       0.0       0.0       0.6       0.0       0.0
 1 Zn px              0.0       0.0       0.0       0.1       0.0       0.0
 1 Zn py              0.0       0.0       0.0       0.1       0.0       0.0
 1 Zn dz2            16.6       0.0       0.0       0.0       0.0       0.0
 1 Zn dxz            35.5       0.0       0.0       0.0       0.0       0.0
 1 Zn dyz            38.1       0.0       0.0       0.0       0.0       0.0
 1 Zn dxy             9.8       0.0       0.0       0.0       0.0       0.0

                     24        25        26        27        28        29   
                   0.03006   0.03474   0.03474   0.07066   0.10622   0.28223
                   0.00000   0.00000   0.00000   0.00000   0.00000   0.00000
                  --------  --------  --------  --------  --------  --------
 0 Al s              11.2       0.0       0.0      34.3      54.2       0.0
 0 Al pz              1.2       0.0       0.0       0.1       1.8       0.0
 0 Al px              0.3       0.0       0.0       0.0       0.4      49.7
 0 Al py              0.3       0.0       0.0       0.0       0.4      50.3
 1 Zn s               0.0       0.0       0.0      60.5      37.4       0.0
 1 Zn pz             60.4       0.0      30.6       3.4       3.9       0.0
 1 Zn px             13.5      46.9      37.5       0.8       0.9       0.0
 1 Zn py             13.1      53.0      31.9       0.7       0.9       0.0

                     30        31        32        33        34        35   
                   0.28225   0.28690   0.37202   0.37204   0.37921   0.38392
                   0.00000   0.00000   0.00000   0.00000   0.00000   0.00000
                  --------  --------  --------  --------  --------  --------
 0 Al s               0.0       0.3       0.0       0.0       0.0       0.0
 0 Al pz             30.2      67.4       0.0       0.0       0.1       0.0
 0 Al px             34.9      14.9       0.0       0.0       0.0       0.0
 0 Al py             34.9      14.3       0.0       0.0       0.0       0.0
 0 Al dz2             0.0       0.1       0.0      64.0      28.7       0.0
 0 Al dxz             0.0       0.1      33.7       7.8      32.3      16.6
 0 Al dyz             0.0       0.1      35.5       6.8      31.3      14.3
 0 Al dx2y2           0.0       0.0      30.8       0.0       0.0      69.1
 0 Al dxy             0.0       0.0       0.0      21.3       7.1       0.1
 1 Zn s               0.0       1.5       0.0       0.0       0.4       0.0
 1 Zn pz              0.0       1.0       0.0       0.0       0.0       0.0
 1 Zn px              0.0       0.2       0.0       0.0       0.0       0.0
 1 Zn py              0.0       0.2       0.0       0.0       0.0       0.0

                     36        37        38        39        40        41   
                   0.38393   1.29724   1.29728   1.29766   1.29772   1.29850
                   0.00000   0.00000   0.00000   0.00000   0.00000   0.00000
                  --------  --------  --------  --------  --------  --------
 0 Al dz2             7.1       0.0       0.0       0.0       0.0       0.0
 0 Al dxz             9.4       0.0       0.0       0.0       0.0       0.0
 0 Al dyz            11.9       0.0       0.0       0.0       0.0       0.0
 0 Al dx2y2           0.1       0.0       0.0       0.0       0.0       0.0
 0 Al dxy            71.4       0.0       0.0       0.0       0.0       0.0
 1 Zn dz2             0.0       6.0       0.0      64.3       0.0      29.7
 1 Zn dxz             0.0       9.8      13.4       8.6      35.8      32.4
 1 Zn dyz             0.0       8.8      15.4       8.4      35.5      31.8
 1 Zn dx2y2           0.0       0.2      71.1       0.0      28.7       0.0
 1 Zn dxy             0.0      75.2       0.1      18.6       0.0       6.0

                     42        43        44        45        46        47   
                   6.45056   6.45056   6.45074   6.45074   6.45083   6.45085
                   0.00000   0.00000   0.00000   0.00000   0.00000   0.00000
                  --------  --------  --------  --------  --------  --------
 1 Zn f0              2.0       0.0      30.6       0.3      64.7       0.2
 1 Zn f+1             2.0       5.4       7.1      29.6       2.7      18.4
 1 Zn f-1             4.2       3.3      13.8      23.2       1.6      19.7
 1 Zn f+2             0.6      31.3       0.1      15.0       0.1      52.9
 1 Zn f-2            32.3       0.6      17.0       0.2      23.2       0.0
 1 Zn f+3            37.0      22.0      18.2      13.3       4.2       4.2
 1 Zn f-3            21.8      37.4      13.2      18.5       3.5       4.5

                     48   
                   6.45088
                   0.00000
                  --------
 1 Zn f0              2.1
 1 Zn f+1            34.9
 1 Zn f-1            34.2
 1 Zn f-2            26.7
 1 Zn f+3             1.0
 1 Zn f-3             1.1

SPIN DOWN
                      0         1         2         3         4         5   
                 -345.64221 -55.39813 -41.61022 -36.69247 -36.69246 -36.69236
                   1.00000   1.00000   1.00000   1.00000   1.00000   1.00000
                  --------  --------  --------  --------  --------  --------
 0 Al s               0.0     100.0       0.0       0.0       0.0       0.0
 1 Zn s             100.0       0.0     100.0       0.0       0.0       0.0
 1 Zn pz              0.0       0.0       0.0      30.4       0.0      69.6
 1 Zn px              0.0       0.0       0.0      33.8      50.7      15.4
 1 Zn py              0.0       0.0       0.0      35.8      49.3      14.9

                      6         7         8         9        10        11   
                  -4.54760  -3.95123  -2.98234  -2.98233  -2.98216  -2.55936
                   1.00000   1.00000   1.00000   1.00000   1.00000   1.00000
                  --------  --------  --------  --------  --------  --------
 0 Al s               0.0     100.0       0.0       0.0       0.0       0.0
 0 Al pz              0.0       0.0       0.0       0.0       0.0      30.8
 0 Al px              0.0       0.0       0.0       0.0       0.0      38.1
 0 Al py              0.0       0.0       0.0       0.0       0.0      31.1
 1 Zn s             100.0       0.0       0.0       0.0       0.0       0.0
 1 Zn pz              0.0       0.0      31.6       0.0      68.3       0.0
 1 Zn px              0.0       0.0      32.2      51.8      16.0       0.0
 1 Zn py              0.0       0.0      36.2      48.2      15.6       0.0

                     12        13        14        15        16        17   
                  -2.55936  -2.55174  -0.34061  -0.34061  -0.34042  -0.34039
                   1.00000   1.00000   1.00000   1.00000   1.00000   1.00000
                  --------  --------  --------  --------  --------  --------
 0 Al pz              0.0      69.2       0.0       0.0       0.0       0.0
 0 Al px             46.2      15.6       0.0       0.0       0.0       0.0
 0 Al py             53.7      15.2       0.0       0.0       0.0       0.0
 1 Zn dz2             0.0       0.0       8.0       0.0      71.7       0.0
 1 Zn dxz             0.0       0.0       9.9      15.0       3.8      36.3
 1 Zn dyz             0.0       0.0      10.2      15.2       5.1      33.5
 1 Zn dx2y2           0.0       0.0       0.0      69.8       0.0      30.1
 1 Zn dxy             0.0       0.0      71.9       0.0      19.3       0.0

                     18        19        20        21        22        23   
                  -0.34035  -0.26537  -0.19639  -0.08976  -0.08976  -0.06255
                   1.00000   1.00000   1.00000   0.00000   0.00000   0.00000
                  --------  --------  --------  --------  --------  --------
 0 Al s               0.0      99.7       0.2       0.0       0.0       0.0
 0 Al pz              0.0       0.0       0.2       0.0      30.8      67.1
 0 Al px              0.0       0.0       0.0      52.3      32.1      15.2
 0 Al py              0.0       0.0       0.0      47.7      37.1      14.7
 1 Zn s               0.0       0.2      99.6       0.0       0.0       0.8
 1 Zn pz              0.0       0.0       0.0       0.0       0.0       1.5
 1 Zn px              0.0       0.0       0.0       0.0       0.0       0.3
 1 Zn py              0.0       0.0       0.0       0.0       0.0       0.3
 1 Zn dz2            20.2       0.0       0.0       0.0       0.0       0.0
 1 Zn dxz            35.0       0.0       0.0       0.0       0.0       0.0
 1 Zn dyz            36.0       0.0       0.0       0.0       0.0       0.0
 1 Zn dxy             8.7       0.0       0.0       0.0       0.0       0.0

                     24        25        26        27        28        29   
                   0.03333   0.03508   0.03508   0.07700   0.11636   0.28861
                   0.00000   0.00000   0.00000   0.00000   0.00000   0.00000
                  --------  --------  --------  --------  --------  --------
 0 Al s               7.4       0.0       0.0      21.7      70.7       0.0
 0 Al pz              2.0       0.0       0.0       0.4       1.1       0.0
 0 Al px              0.4       0.0       0.0       0.1       0.3      50.3
 0 Al py              0.4       0.0       0.0       0.1       0.2      49.7
 1 Zn s               0.1       0.0       0.0      76.3      21.9       0.0
 1 Zn pz             62.1       0.0      30.6       0.9       4.0       0.0
 1 Zn px             13.9      46.6      37.8       0.2       0.9       0.0
 1 Zn py             13.5      53.3      31.6       0.2       0.9       0.0

                     30        31        32        33        34        35   
                   0.28863   0.32383   0.38378   0.38379   0.41262   0.41264
                   0.00000   0.00000   0.00000   0.00000   0.00000   0.00000
                  --------  --------  --------  --------  --------  --------
 0 Al s               0.0       0.2       0.0       0.0       0.0       0.0
 0 Al pz             30.7      67.6       0.0       0.0       0.0       0.0
 0 Al px             34.1      15.2       0.0       0.0       0.0       0.0
 0 Al py             35.2      14.8       0.0       0.0       0.0       0.0
 0 Al dz2             0.0       0.0       0.0       7.1       0.0      64.0
 0 Al dxz             0.0       0.0      16.4       9.6      33.9       7.7
 0 Al dyz             0.0       0.0      14.4      11.7      35.3       7.0
 0 Al dx2y2           0.0       0.0      69.1       0.1      30.8       0.0
 0 Al dxy             0.0       0.0       0.1      71.5       0.0      21.3
 1 Zn s               0.0       1.0       0.0       0.0       0.0       0.0
 1 Zn pz              0.0       0.8       0.0       0.0       0.0       0.0
 1 Zn px              0.0       0.2       0.0       0.0       0.0       0.0
 1 Zn py              0.0       0.2       0.0       0.0       0.0       0.0

                     36        37        38        39        40        41   
                   0.42425   1.29749   1.29753   1.29807   1.29814   1.29904
                   0.00000   0.00000   0.00000   0.00000   0.00000   0.00000
                  --------  --------  --------  --------  --------  --------
 0 Al s               0.2       0.0       0.0       0.0       0.0       0.0
 0 Al dz2            28.7       0.0       0.0       0.0       0.0       0.0
 0 Al dxz            32.3       0.0       0.0       0.0       0.0       0.0
 0 Al dyz            31.3       0.0       0.0       0.0       0.0       0.0
 0 Al dxy             7.1       0.0       0.0       0.0       0.0       0.0
 1 Zn s               0.3       0.0       0.0       0.0       0.0       0.0
 1 Zn dz2             0.0       6.3       0.0      64.0       0.0      29.7
 1 Zn dxz             0.0      10.2      13.6       8.4      35.4      32.4
 1 Zn dyz             0.0       9.1      15.6       8.2      35.4      31.7
 1 Zn dx2y2           0.0       0.2      70.6       0.0      29.2       0.0
 1 Zn dxy             0.0      74.3       0.1      19.4       0.0       6.2

                     42        43        44        45        46        47   
                   6.45057   6.45057   6.45075   6.45076   6.45086   6.45087
                   0.00000   0.00000   0.00000   0.00000   0.00000   0.00000
                  --------  --------  --------  --------  --------  --------
 1 Zn f0              2.0       0.0      30.2       0.3      65.1       0.2
 1 Zn f+1             2.0       5.4       7.1      29.6       2.6      18.4
 1 Zn f-1             4.2       3.3      13.9      23.2       1.5      19.7
 1 Zn f+2             0.6      31.3       0.1      15.0       0.1      52.9
 1 Zn f-2            32.3       0.6      17.2       0.2      23.1       0.0
 1 Zn f+3            37.0      22.0      18.3      13.3       4.1       4.2
 1 Zn f-3            21.8      37.4      13.2      18.5       3.4       4.5

                     48   
                   6.45091
                   0.00000
                  --------
 1 Zn f0              2.2
 1 Zn f+1            34.9
 1 Zn f-1            34.2
 1 Zn f-2            26.5
 1 Zn f+3             1.0
 1 Zn f-3             1.1


                      *****************************
                      * MAYER POPULATION ANALYSIS *
                      *****************************

  NA   - Mulliken gross atomic population
  ZA   - Total nuclear charge
  QA   - Mulliken gross atomic charge
  VA   - Mayer's total valence
  BVA  - Mayer's bonded valence
  FA   - Mayer's free valence

  ATOM       NA         ZA         QA         VA         BVA        FA
  0 Al    12.9941    13.0000     0.0059     1.0089     0.0272     0.9817
  1 Zn    30.0059    30.0000    -0.0059     0.0275     0.0272     0.0003

  Mayer bond orders larger than 0.100000
  => no bond orders to print


------------------
HIRSHFELD ANALYSIS
------------------

Total integrated alpha density =     22.000000931
Total integrated beta density  =     20.999999866

  ATOM     CHARGE      SPIN    
   0 Al   0.026403    0.961507
   1 Zn  -0.026404    0.038494

  TOTAL  -0.000001    1.000001


------------------
MBIS ANALYSIS
------------------

Convergence threshold (charges)      ...        1.000e-06
Number of iterations                 ...        65

Total integrated alpha density       ...     22.000000931
Total integrated beta density        ...     20.999999866

  ATOM     CHARGE    POPULATION     SPIN    
   0 Al   0.020072   12.979928    0.963003
   1 Zn  -0.020073   30.020073    0.036998

  TOTAL  -0.000001   43.000001    1.000001

 MBIS VALENCE-SHELL DATA:
  ATOM   POPULATION   WIDTH(A.U.)
   0 Al   3.584807    0.828007
   1 Zn   3.302434    0.730850

-------------------------
CHELPG CHARGES GENERATION
-------------------------
Number of atoms                    ...            2
Number of "pure atoms"             ...            2
Grid spacing                       ...     0.300000
Point Cut-Off                      ...     2.800000
Van-der-Waals Radii                ...        COSMO
Total charge                       ...            0
Dipole moment constraint           ...        FALSE
Equivalent atom charge constraint  ...        FALSE

Grid generated                     ...      0.0 sec
Grid points                        ...         3428
Potential calculated               ...      0.0 sec
RespFile stored                    ...           ok
Charges calculated                 ...      0.0 sec

CHELPG Charges            
--------------------------------
  0   Al  :       0.052891
  1   Zn  :      -0.052891
--------------------------------
Total charge:     0.000000
--------------------------------

CHELPG charges calculated...

Timings:
Grid generation                 ...        0.000 sec (=   0.000 min)
Potential calculation           ...        0.034 sec (=   0.001 min)
Fit to the potential            ...        0.000 sec (=   0.000 min)
------------------------------------------------------------------------------

-------
TIMINGS
-------

Total SCF time: 0 days 0 hours 0 min 1 sec 

Total time                  ....       1.996 sec
Sum of individual times     ....       1.756 sec  ( 88.0%)

SCF preparation             ....       0.159 sec  (  8.0%)
Fock matrix formation       ....       0.937 sec  ( 47.0%)
  Startup                   ....       0.060 sec  (  6.4% of F)
  Split-RI-J                ....       0.292 sec  ( 31.2% of F)
  XC integration            ....       0.352 sec  ( 37.6% of F)
    Basis function eval.    ....       0.008 sec  (  2.3% of XC)
    Density eval.           ....       0.005 sec  (  1.3% of XC)
    XC-Functional eval.     ....       0.006 sec  (  1.7% of XC)
    XC-Potential eval.      ....       0.007 sec  (  1.9% of XC)
Diagonalization             ....       0.000 sec  (  0.0%)
Density matrix formation    ....       0.146 sec  (  7.3%)
Total Energy calculation    ....       0.055 sec  (  2.8%)
Population analysis         ....       0.206 sec  ( 10.3%)
Orbital Transformation      ....       0.019 sec  (  0.9%)
Orbital Orthonormalization  ....       0.000 sec  (  0.0%)
DIIS solution               ....       0.040 sec  (  2.0%)
  MO trafo                  ....       0.000 sec  (  0.0 % of DIIS)
  Orb grad                  ....       0.000 sec  (  0.0 % of DIIS)
  Energy W gradient         ....       0.000 sec  (  0.0 % of DIIS)
  DIIS error                ....       0.001 sec  (  3.0 % of DIIS)
  DIIS work                 ....       0.033 sec  ( 82.2 % of DIIS)
  Form Q                    ....       0.000 sec  (  0.0 % of DIIS)
  Form QpQm                 ....       0.000 sec  (  0.0 % of DIIS)
  Exp/Cayley                ....       0.000 sec  (  0.0 % of DIIS)
  Orb update                ....       0.000 sec  (  0.0 % of DIIS)
  Wake-sleep                ....       0.006 sec  ( 14.7 % of DIIS)
SOSCF solution              ....       0.194 sec  (  9.7%)
  MO trafo                  ....       0.073 sec  ( 37.9 % of SOSCF)
  Orb grad                  ....       0.017 sec  (  8.6 % of SOSCF)
  Rot update                ....       0.028 sec  ( 14.6 % of SOSCF)
  Step                      ....       0.040 sec  ( 20.7 % of SOSCF)
Finished LeanSCF after   2.0 sec

Maximum memory used throughout the entire LEANSCF-calculation: 4.5 MB


           ************************************************************
           *        Program running with 8 parallel MPI-processes     *
           *              working on a common directory               *
           ************************************************************

------------------------------------------------------------------------------
                         ORCA PROPERTY INTEGRAL CALCULATIONS
------------------------------------------------------------------------------

GBWName                                   ... orca.gbw
Number of atoms                           ...      2
Number of basis functions                 ...     49
Max core memory                           ...     16 MB

Dipole integrals                          ... YES
Quadrupole integrals                      ... YES
Linear momentum integrals                 ...  NO
Angular momentum integrals                ...  NO
Higher moments length integrals           ...  NO
Higher moments velocity integrals         ...  NO
Kinetic energy integrals                  ...  NO
GIAO right hand sides                     ...  NO
GIAO dipole derivative integrals          ...  NO
SOC integrals                             ...  NO
EPR diamagnetic integrals (GIAO)          ...  NO
EPR gauge integrals                       ...  NO
Field gradient integrals                  ...  NO (   0 nuclei)
Spin-dipole/Fermi contact integrals       ...  NO (   0 nuclei)
Contact density integrals                 ...  NO (   0 nuclei)
Nucleus-orbit integrals                   ...  NO (   0 nuclei)
Geometric perturbations                   ...  NO (   2 nuclei)

Choice of electric origin   ... Center of mass
Position of electric origin ... (  2.4863,  2.7196,  2.5229) 
Choice of magnetic origin   ... GIAO
Position of magnetic origin ... (  0.0000,  0.0000,  0.0000) 

Calculating integrals                     ... Electric Dipole (Length)     done (  0.0 sec)
Calculating integrals                     ... Electric Quadrupole (Length) done (  0.0 sec)

Property integrals calculated in   0.0 sec

Maximum memory used throughout the entire PROPINT-calculation: 7.2 MB


-------------------------------------------------------------------------------
                          DFT DISPERSION CORRECTION                            
                                                                               
                                DFTD4 V3.4.0                                   
-------------------------------------------------------------------------------
The PBE functional is recognized
Active option DFTDOPT                   ...         5   

-------------------------   ----------------
Dispersion correction           -0.000736358
-------------------------   ----------------


-------------------------   --------------------
FINAL SINGLE POINT ENERGY     -2020.997712602404
-------------------------   --------------------



           ************************************************************
           *        Program running with 8 parallel MPI-processes     *
           *              working on a common directory               *
           ************************************************************
------------------------------------------------------------------------------
                         ORCA SCF GRADIENT CALCULATION
------------------------------------------------------------------------------

Nuc. rep. gradient        (SHARK) ... done (  0.0 sec)
HCore & Overlap gradient  (SHARK) ... done (  0.0 sec)
Split-RIJ-J gradient      (SHARK) ... done (  0.4 sec)
XC gradient                       ... done (  0.0 sec)
Dispersion correction             ... done (  0.0 sec)

-------------------
DISPERSION GRADIENT
-------------------

   1   Al  :   -0.000153283    0.000150836   -0.000323881
   2   Zn  :    0.000153283   -0.000150836    0.000323881

Difference to translation invariance:
           :    0.0000000000    0.0000000000    0.0000000000

Difference to rotation invariance:
           :   -0.0000000000   -0.0000000000   -0.0000000000

Norm of the Dispersion gradient    ...    0.0005498114
RMS gradient                       ...    0.0002244596
MAX gradient                       ...    0.0003238811

------------------
CARTESIAN GRADIENT
------------------

   1   Al  :   -0.000430521    0.000419466   -0.000967645
   2   Zn  :    0.000430521   -0.000419466    0.000967645

Difference to translation invariance:
           :    0.0000000003    0.0000000001    0.0000000002

Difference to rotation invariance:
           :   -0.0002510414   -0.0002208951    0.0000159358

Norm of the Cartesian gradient     ...    0.0016109855
RMS gradient                       ...    0.0006576821
MAX gradient                       ...    0.0009676453

-------
TIMINGS
-------

Total SCF gradient time     ....        0.462 sec

Densities                   ....       0.006 sec  (  1.3%)
One electron gradient       ....       0.014 sec  (  2.9%)
RI-J Coulomb gradient       ....       0.355 sec  ( 76.9%)
XC gradient                 ....       0.040 sec  (  8.6%)

Maximum memory used throughout the entire SCFGRAD-calculation: 25.6 MB


           ************************************************************
           *        Program running with 8 parallel MPI-processes     *
           *              working on a common directory               *
           ************************************************************
------------------------------------------------------------------------------
                            ORCA SCF RESPONSE CALCULATION
------------------------------------------------------------------------------

GBWName                                 ... orca.gbw
Number of atoms                         ...      2
Number of basis functions               ...     49
Max core memory                         ...     16 MB

Electric field perturbation             ... YES
Quadrupolar field perturbation          ...  NO
Magnetic field perturbation (no GIAO)   ...  NO
Magnetic field perturbation (with GIAO) ...  NO
Linear momentum (velocity) perturbation ...  NO
Spin-orbit coupling perturbation        ...  NO
Choice of electric origin               ... Center of mass
Position of electric origin             ...     2.486324     2.719612     2.522854
Choice of magnetic origin               ... GIAO
Position of magnetic origin             ...     0.000000     0.000000     0.000000
Nuclear geometric perturbations         ...  NO (   6 perturbations)
Nucleus-orbit perturbations             ...  NO (   0 perturbations)
Spin-dipole/Fermi contact perturbations ...  NO (   0 perturbations)

Total number of real perturbations      ...      3
Total number of imaginary perturbations ...      0
Total number of triplet perturbations   ...      0
Total number of SOC perturbations       ...      0

Using XC Grid                  ... (orca.grid_cpscf.tmp) 
Recalculating density on grid  ... (orca.grho_cpscf0.tmp) done
Calculating the xc-kernel      ... (orca.fxc_cpscf0.tmp) done

                                **********************
                                * REAL PERTURBATIONS *
                                **********************



-------------------
SHARK CP-SCF DRIVER
-------------------

Dimension of the orbital basis          ...     49
Dimension of the CPSCF-problem          ...   1182
Number of operators                     ...      2
Max. number of iterations               ...    128
Convergence Tolerance                   ... 1.0e-04
Number of perturbations                 ...      3
Perturbation type                       ... REAL

----------------------------
POPLE LINEAR EQUATION SOLVER
----------------------------

  ITERATION   0:   ||err||_max =   1.5031e+01 (   0.1 sec   0/  3 done)
  ITERATION   1:   ||err||_max =   1.2219e+00 (   0.1 sec   0/  3 done)
  ITERATION   2:   ||err||_max =   1.8775e+00 (   0.1 sec   0/  3 done)
  ITERATION   3:   ||err||_max =   2.5245e+01 (   0.1 sec   0/  3 done)
  ITERATION   4:   ||err||_max =   5.9389e+00 (   0.1 sec   0/  3 done)
  ITERATION   5:   ||err||_max =   2.6942e+00 (   0.1 sec   0/  3 done)
  ITERATION   6:   ||err||_max =   1.0978e+00 (   0.1 sec   0/  3 done)
  ITERATION   7:   ||err||_max =   3.7516e-01 (   0.1 sec   0/  3 done)
  ITERATION   8:   ||err||_max =   1.0435e-01 (   0.1 sec   0/  3 done)
  ITERATION   9:   ||err||_max =   4.0470e-02 (   0.1 sec   0/  3 done)
  ITERATION  10:   ||err||_max =   3.4133e-02 (   0.1 sec   0/  3 done)
  ITERATION  11:   ||err||_max =   1.7960e-01 (   0.1 sec   0/  3 done)
  ITERATION  12:   ||err||_max =   5.5926e-02 (   0.1 sec   0/  3 done)
  ITERATION  13:   ||err||_max =   1.8341e-02 (   0.1 sec   0/  3 done)
  ITERATION  14:   ||err||_max =   3.3704e-03 (   0.1 sec   0/  3 done)
  ITERATION  15:   ||err||_max =   5.9124e-04 (   0.1 sec   0/  3 done)
  ITERATION  16:   ||err||_max =   1.6916e-04 (   0.1 sec   1/  3 done)
  ITERATION  17:   ||err||_max =   5.6798e-05 (   0.1 sec   3/  3 done)

CP-SCF equations solved in   1.2 sec
Response densities calculated in   0.0 sec

Maximum memory used throughout the entire SCFRESP-calculation: 5.5 MB


           ************************************************************
           *        Program running with 8 parallel MPI-processes     *
           *              working on a common directory               *
           ************************************************************

------------------------------------------------------------------------------
                              ORCA PROPERTY CALCULATIONS
------------------------------------------------------------------------------

GBWName                                 ... orca.gbw
Number of atoms                         ...      2
Number of basis functions               ...     49
Max core memory                         ...     16 MB

Electric properties:
Dipole moment                           ... YES
Quadrupole moment                       ... YES
Static polarizability (Dipole/Dipole)   ... YES
Static polarizability (Dipole/Quad.)    ...  NO
Static polarizability (Quad./Quad.)     ...  NO
Static polarizability (Velocity)        ...  NO
Static hyperpolarizability              ...  NO

Atomic electric properties:
Dipole moment                           ...  NO
Quadrupole moment                       ...  NO
Static polarizability                   ...  NO

Choice of electric origin               ... Center of mass
Position of electric origin             ...     2.486324     2.719612     2.522854

General magnetic properties:
Magnetizability                         ...  NO

EPR properties:
g-Tensor (aka g-matrix)                 ...  NO
Zero-Field splitting spin-orbit         ...  NO
Zero-field splitting spin-spin          ...  NO
Hyperfine couplings                     ...  NO (   0 nuclei)
Quadrupole couplings                    ...  NO (   0 nuclei)
Contact density                         ...  NO (   0 nuclei)

NMR properties:
Chemical shifts                         ...  NO (   0 nuclei)
Spin-rotation constants                 ...  NO (   0 nuclei)
Spin-spin couplings                     ...  NO (   0 nuclei,    0 pairs)

Choice of magnetic origin               ... GIAO
Position of magnetic origin             ...     0.000000     0.000000     0.000000

Properties with geometric perturbations:
SCF Hessian                             ...  NO
IR spectrum                             ...  NO
VCD spectrum                            ...  NO
X-ray spectroscopy properties:
SCF XES/XAS/RIXS spectra                ...  NO

SCF SOC stabilization energy            ...  NO
Diagonal Born-Oppenheimer correction    ...  NO

-------------
DIPOLE MOMENT
-------------

Method             : SCF
Type of density    : Electron Density
Multiplicity       :   2
Irrep              :   0
Energy             : -2020.9969762446057757 Eh
Basis              : AO
                                X                 Y                 Z
Electronic contribution:      1.623053819      -1.597158704       3.429361520
Nuclear contribution   :     -1.669994801       1.643333612      -3.528628578
                        -----------------------------------------
Total Dipole Moment    :     -0.046940982       0.046174908      -0.099267058
                        -----------------------------------------
Magnitude (a.u.)       :      0.119119800
Magnitude (Debye)      :      0.302778469



--------------------
Rotational spectrum 
--------------------
 
Rotational constants in cm-1:             0.000000             0.033746             0.033746 
Rotational constants in MHz :             0.000000          1011.685378          1011.685378 

Dipole components along the rotational axes: 
x,y,z [a.u.] :     0.119120    -0.000056    -0.000012 
x,y,z [Debye]:     0.302778    -0.000141    -0.000030 

 

Dipole moment calculation done in   0.0 sec 

-----------------
QUADRUPOLE MOMENT
-----------------

Method             : SCF
Type of density    : Electron Density
Multiplicity       :   2
Irrep              :   0
Energy             : -2020.9969762446057757 Eh
Basis              : AO

                XX              YY              ZZ              XY              XZ              YZ
  NUC      131.748563244   127.575455078   588.203418138  -129.645219394   278.379157328  -273.934880487
  EL      -152.430205329  -148.236468287  -611.378640155   130.362620740  -279.910346062   275.444215080
  TOT      -20.681642084   -20.661013209   -23.175222017     0.717401346    -1.531188734     1.509334593 (a.u.)
           -27.817515916   -27.789769373   -31.171466205     0.964929345    -2.059501214     2.030106647 (Buckingham)

diagonalized tensor:
           -24.610199201   -19.953852188   -19.953825922 (a.u.)
           -33.101559594   -26.838613614   -26.838578286 (Buckingham)
           -12.525927288     6.262910651     6.263016636 (traceless form in Buckingham)

             0.395351026     0.721890559    -0.567953861
            -0.389708133     0.691745769     0.607960001
             0.831760265    -0.019021371     0.554809021
        
Isotropic quadrupole :   -21.505959103

Quadrupole moment calculation done in   0.0 sec (  0.0 sec for integrals)


---------------------------------------------------
STATIC POLARIZABILITY TENSOR (Dipole/Dipole)
---------------------------------------------------

Method             : SCF
Type of density    : Electron Density
Type of derivative : Electric Field (Direction=X)
Multiplicity       :   2
Irrep              :   0
Basis              : AO

The raw cartesian tensor (atomic units):
      63.130955751        -4.629502536        10.108535198  
      -4.629502536        63.026230036        -9.975198359  
      10.108535198        -9.975198359        79.324494211  
diagonalized tensor: 
      58.172809791        58.449009618        88.859860589  

Orientation: 
      -0.609961459         0.686011295         0.396655419  
       0.563429672         0.727427709        -0.391657929  
       0.557219906         0.015408809         0.830221985  

Isotropic polarizability :  68.49389


Polarizability tensor calculation done in   0.0 sec 

Maximum memory used throughout the entire PROP-calculation: 3.7 MB

--------------------------------
SUGGESTED CITATIONS FOR THIS RUN
--------------------------------

Below you find a list of papers that are relevant to this ORCA run
We neither can nor want to force you to cite these papers, but we appreciate if you do
You receive ORCA, which is the product of decades of hard work by many enthusiastic individuals, for free
The only thing we kindly ask in return is that you cite our papers,
We deeply appreciate it, if you show your appreciation for ORCA by not just citing the generic ORCA reference.

Please note that relegating all ORCA citations to the supporting information does *not* help us.
SI sections are not indexed - citations you put there will not count into any citation statistics
But we need these citations in order to attract the funding resources that allow us to do what we are doing

Therefore, if you are a happy ORCA user, please consider citing a few of the papers listed below in the main body of your paper

In addition to the list printed below, the program has created the file orca.bibtex that contains the list in bibtex format
You can import this file easily into all common literature databanks and citation aid programs


List of essential papers. We consider these as the minimum necessary citations

  1. Neese, F.
     Software update: the ORCA program system, version 6.0
     WIRES Comput. Molec. Sci. 2025 15(1), e70019
     doi.org/10.1002/wcms.7019

List of papers to cite with high priority. The work reported in these papers was absolutely
necessary for this run to complete.
Our perspective: the developers of density functionals and basis sets usually get cited in chemistry papers
Good! But without the algorithms to do something with them, the functionals or basis sets would not do anything.
Hence, in our opinion, the algorithm design and method developments papers are equally worthy of getting cited

  1. Neese, F.
     An improvement of the resolution of the identity approximation for the formation of the Coulomb matrix
     J. Comp. Chem. 2003 24(14), 1740-1747
     doi.org/10.1002/jcc.10318
  2. Caldeweyher, E.; Bannwarth, C.; Grimme, S.
     Extension of the D3 dispersion coefficient model
     J. Chem. Phys. 2017 147 , 034112
     doi.org/10.1063/1.4993215
  3. Caldeweyher, E.; Ehlert, S.; Hansen, A.; Neugebauer, H.; Spicher, S.; Bannwarth, C.; Grimme, S.
     A generally applicable atomic-charge dependent London dispersion correction
     J. Chem. Phys. 2019 150 , 154122
     doi.org/10.1063/1.5090222
  4. Caldeweyher, E.; Mewes, J.; Ehlert, S.; Grimme, S.
     Extension and evaluation of the D4 London-dispersion model for periodic systems
     Phys. Chem. Chem. Phys. 2020 22(16), 8499-8512
     doi.org/10.1039/D0CP00502A
  5. Neese, F.
     The SHARK Integral Generation and Digestion System
     J. Comp. Chem. 2022 44(3), 381
     doi.org/10.1002/jcc.26942
  6. Wittmann, L.; Gordiy, I.; Friede, M.; Helmich-Paris, B.; Grimme, S.; Hansen, A.; Bursch, M.
     Extension of the D3 and D4 London Dispersion Corrections to the full Actinides Series
     Phys. Chem. Chem. Phys. 2024 26(32), 21379-21394
     doi.org/10.1039/D4CP01514B

List of suggested additional citations. These are papers that are important in the 'surrounding' of 
of this run, or papers that preceded the highly important papers. If you like your results we are grateful for a citation.

  1. Neese, F.
     The ORCA program system
     WIRES Comput. Molec. Sci. 2012 2(1), 73-78
     doi.org/10.1002/wcms.81
  2. Neese, F.
     Software update: the ORCA program system, version 4.0
     WIRES Comput. Molec. Sci. 2018 8(1), 1-6
     doi.org/10.1002/wcms.1327
  3. Neese, F.; Wennmohs, F.; Becker, U.; Riplinger, C.
     The ORCA quantum chemistry program package
     J. Chem. Phys. 2020 152(22), 224108
     doi.org/10.1063/5.0004608
  4. Neese, F.
     Software update: The ORCA program system—Version 5.0
     WIRES Comput. Molec. Sci. 2022 12(1), e1606
     doi.org/10.1002/wcms.1606

List of optional additional citations

  1. Neese, F.
     Approximate second-order SCF convergence for spin unrestricted wavefunctions
     Chem. Phys. Lett. 2000 325(1-3), 93-98
     doi.org/10.1016/s0009-2614(00)00662-x

Timings for individual modules:

Sum of individual times          ...        8.512 sec (=   0.142 min)
Startup calculation              ...        1.743 sec (=   0.029 min)  20.5 %
SCF iterations                   ...        3.202 sec (=   0.053 min)  37.6 %
Property integrals               ...        0.504 sec (=   0.008 min)   5.9 %
SCF Response                     ...        1.712 sec (=   0.029 min)  20.1 %
Property calculations            ...        0.516 sec (=   0.009 min)   6.1 %
SCF Gradient evaluation          ...        0.834 sec (=   0.014 min)   9.8 %
                             ****ORCA TERMINATED NORMALLY****
TOTAL RUN TIME: 0 days 0 hours 0 minutes 9 seconds 349 msec
